1,Faster,10,N/A,2500000,128,512,200837,298750


resource usage stats

Linux 5.4.0-52-generic (LT36716) 	11/02/20 	_x86_64_	(12 CPU)

# Time        UID       PID    %usr %system  %guest   %wait    %CPU   CPU  minflt/s  majflt/s     VSZ     RSS   %MEM   kB_rd/s   kB_wr/s kB_ccwr/s iodelay  Command
21:31:07     1000     89747   78.00   11.00    0.00    0.00   89.00     5 144505.00      1.00  657516  582244   1.79    164.00  32772.00      0.00       8  resource_usage_

# Time        UID       PID    %usr %system  %guest   %wait    %CPU   CPU  minflt/s  majflt/s     VSZ     RSS   %MEM   kB_rd/s   kB_wr/s kB_ccwr/s iodelay  Command
21:31:08     1000     89747   63.00    1.00    0.00    0.00   64.00     5      1.00      0.00  657516  582244   1.79      0.00 262144.00      0.00      36  resource_usage_

# Time        UID       PID    %usr %system  %guest   %wait    %CPU   CPU  minflt/s  majflt/s     VSZ     RSS   %MEM   kB_rd/s   kB_wr/s kB_ccwr/s iodelay  Command
21:31:09     1000     89747   65.00    1.00    0.00    0.00   66.00     5      0.00      0.00  657516  582244   1.79      0.00 262144.00      0.00      35  resource_usage_

# Time        UID       PID    %usr %system  %guest   %wait    %CPU   CPU  minflt/s  majflt/s     VSZ     RSS   %MEM   kB_rd/s   kB_wr/s kB_ccwr/s iodelay  Command
21:31:10     1000     89747   66.00    2.00    0.00    0.00   68.00     1      0.00      0.00  657516  582244   1.79      0.00 294912.00      0.00      32  resource_usage_

# Time        UID       PID    %usr %system  %guest   %wait    %CPU   CPU  minflt/s  majflt/s     VSZ     RSS   %MEM   kB_rd/s   kB_wr/s kB_ccwr/s iodelay  Command
21:31:11     1000     89747   64.00    1.00    0.00    0.00   65.00     1      1.00      0.00  657516  582244   1.79      0.00 262144.00      0.00      35  resource_usage_

# Time        UID       PID    %usr %system  %guest   %wait    %CPU   CPU  minflt/s  majflt/s     VSZ     RSS   %MEM   kB_rd/s   kB_wr/s kB_ccwr/s iodelay  Command
21:31:12     1000     89747   67.00    1.00    0.00    0.00   68.00     1      1.00      0.00  657516  582244   1.79      0.00 262144.00      0.00      32  resource_usage_

# Time        UID       PID    %usr %system  %guest   %wait    %CPU   CPU  minflt/s  majflt/s     VSZ     RSS   %MEM   kB_rd/s   kB_wr/s kB_ccwr/s iodelay  Command
21:31:13     1000     89747   70.00    1.00    0.00    0.00   71.00     1      0.00      0.00  657516  582244   1.79      0.00 229376.00      0.00      29  resource_usage_

# Time        UID       PID    %usr %system  %guest   %wait    %CPU   CPU  minflt/s  majflt/s     VSZ     RSS   %MEM   kB_rd/s   kB_wr/s kB_ccwr/s iodelay  Command
21:31:14     1000     89747   67.00    1.00    0.00    0.00   68.00     1      0.00      0.00  657516  582244   1.79      0.00 262144.00      0.00      32  resource_usage_

# Time        UID       PID    %usr %system  %guest   %wait    %CPU   CPU  minflt/s  majflt/s     VSZ     RSS   %MEM   kB_rd/s   kB_wr/s kB_ccwr/s iodelay  Command
21:31:15     1000     89747   71.00    0.00    0.00    0.00   71.00     1      0.00      0.00  657516  582244   1.79      0.00 229376.00      0.00      29  resource_usage_

# Time        UID       PID    %usr %system  %guest   %wait    %CPU   CPU  minflt/s  majflt/s     VSZ     RSS   %MEM   kB_rd/s   kB_wr/s kB_ccwr/s iodelay  Command
21:31:16     1000     89747   71.00    2.00    0.00    0.00   73.00     1      2.00      0.00  657648  582244   1.79      0.00 229376.00      0.00      27  resource_usage_

# Time        UID       PID    %usr %system  %guest   %wait    %CPU   CPU  minflt/s  majflt/s     VSZ     RSS   %MEM   kB_rd/s   kB_wr/s kB_ccwr/s iodelay  Command
21:31:17     1000     89747   68.00    1.00    0.00    0.00   69.00     1      0.00      0.00  657648  582244   1.79      0.00 229376.00      0.00      31  resource_usage_

# Time        UID       PID    %usr %system  %guest   %wait    %CPU   CPU  minflt/s  majflt/s     VSZ     RSS   %MEM   kB_rd/s   kB_wr/s kB_ccwr/s iodelay  Command
21:31:18     1000     89747   54.00    0.00    0.00    0.00   54.00     7      0.00      0.00  657648  582244   1.79      0.00 163840.00      0.00      46  resource_usage_

# Time        UID       PID    %usr %system  %guest   %wait    %CPU   CPU  minflt/s  majflt/s     VSZ     RSS   %MEM   kB_rd/s   kB_wr/s kB_ccwr/s iodelay  Command
21:31:19     1000     89747   62.00    1.00    0.00    1.00   63.00     1      0.00      0.00  657648  582244   1.79      0.00 163840.00      0.00      33  resource_usage_

# Time        UID       PID    %usr %system  %guest   %wait    %CPU   CPU  minflt/s  majflt/s     VSZ     RSS   %MEM   kB_rd/s   kB_wr/s kB_ccwr/s iodelay  Command
21:31:20     1000     89747   65.00    3.00    0.00    0.00   68.00     1      0.00      0.00  657648  582244   1.79      0.00 196608.00      0.00      35  resource_usage_

# Time        UID       PID    %usr %system  %guest   %wait    %CPU   CPU  minflt/s  majflt/s     VSZ     RSS   %MEM   kB_rd/s   kB_wr/s kB_ccwr/s iodelay  Command
21:31:21     1000     89747   62.00    0.00    0.00    0.00   62.00     7      0.00      0.00  657648  582244   1.79      0.00 131072.00      0.00      38  resource_usage_

# Time        UID       PID    %usr %system  %guest   %wait    %CPU   CPU  minflt/s  majflt/s     VSZ     RSS   %MEM   kB_rd/s   kB_wr/s kB_ccwr/s iodelay  Command
21:31:22     1000     89747   54.00    1.00    0.00    0.00   55.00     1      2.00      0.00  657648  582656   1.79      0.00 163840.00      0.00      40  resource_usage_

# Time        UID       PID    %usr %system  %guest   %wait    %CPU   CPU  minflt/s  majflt/s     VSZ     RSS   %MEM   kB_rd/s   kB_wr/s kB_ccwr/s iodelay  Command
21:31:23     1000     89747   55.00    1.00    0.00    0.00   56.00     1      0.00      0.00  657648  582656   1.79      0.00 131072.00      0.00      49  resource_usage_

# Time        UID       PID    %usr %system  %guest   %wait    %CPU   CPU  minflt/s  majflt/s     VSZ     RSS   %MEM   kB_rd/s   kB_wr/s kB_ccwr/s iodelay  Command
21:31:24     1000     89747   57.00    0.00    0.00    0.00   57.00     1      0.00      0.00  657648  582656   1.79      0.00 131072.00      0.00      43  resource_usage_

# Time        UID       PID    %usr %system  %guest   %wait    %CPU   CPU  minflt/s  majflt/s     VSZ     RSS   %MEM   kB_rd/s   kB_wr/s kB_ccwr/s iodelay  Command
21:31:25     1000     89747   60.00    1.00    0.00    0.00   61.00     1      0.00      0.00  657648  582656   1.79      0.00 131072.00      0.00      40  resource_usage_

# Time        UID       PID    %usr %system  %guest   %wait    %CPU   CPU  minflt/s  majflt/s     VSZ     RSS   %MEM   kB_rd/s   kB_wr/s kB_ccwr/s iodelay  Command
21:31:26     1000     89747   61.00    0.00    0.00    0.00   61.00     1      0.00      0.00  657648  582656   1.79      0.00 131072.00      0.00      38  resource_usage_

# Time        UID       PID    %usr %system  %guest   %wait    %CPU   CPU  minflt/s  majflt/s     VSZ     RSS   %MEM   kB_rd/s   kB_wr/s kB_ccwr/s iodelay  Command
21:31:27     1000     89747   54.00    2.00    0.00    0.00   56.00     1      0.00      0.00  657648  582656   1.79      0.00 163840.00      0.00      40  resource_usage_

# Time        UID       PID    %usr %system  %guest   %wait    %CPU   CPU  minflt/s  majflt/s     VSZ     RSS   %MEM   kB_rd/s   kB_wr/s kB_ccwr/s iodelay  Command
21:31:28     1000     89747   54.00    1.00    0.00    0.00   55.00     7      0.00      0.00  657648  582656   1.79      0.00 131072.00      0.00      49  resource_usage_

# Time        UID       PID    %usr %system  %guest   %wait    %CPU   CPU  minflt/s  majflt/s     VSZ     RSS   %MEM   kB_rd/s   kB_wr/s kB_ccwr/s iodelay  Command
21:31:29     1000     89747   67.00    0.00    0.00    0.00   67.00     7      1.00      0.00  657648  582656   1.79      0.00 163840.00      0.00      32  resource_usage_

# Time        UID       PID    %usr %system  %guest   %wait    %CPU   CPU  minflt/s  majflt/s     VSZ     RSS   %MEM   kB_rd/s   kB_wr/s kB_ccwr/s iodelay  Command
21:31:30     1000     89747   62.00    1.00    0.00    0.00   63.00     1      1.00      0.00  657648  582656   1.79      0.00 131072.00      0.00      38  resource_usage_

# Time        UID       PID    %usr %system  %guest   %wait    %CPU   CPU  minflt/s  majflt/s     VSZ     RSS   %MEM   kB_rd/s   kB_wr/s kB_ccwr/s iodelay  Command
21:31:31     1000     89747   60.00    1.00    0.00    1.00   61.00     7      0.00      0.00  657648  582656   1.79      0.00 131072.00      0.00      38  resource_usage_

# Time        UID       PID    %usr %system  %guest   %wait    %CPU   CPU  minflt/s  majflt/s     VSZ     RSS   %MEM   kB_rd/s   kB_wr/s kB_ccwr/s iodelay  Command
21:31:32     1000     89747   59.00    1.00    0.00    0.00   60.00     1      0.00      0.00  657648  582656   1.79      0.00 163840.00      0.00      41  resource_usage_

# Time        UID       PID    %usr %system  %guest   %wait    %CPU   CPU  minflt/s  majflt/s     VSZ     RSS   %MEM   kB_rd/s   kB_wr/s kB_ccwr/s iodelay  Command
21:31:33     1000     89747   61.00    0.00    0.00    0.00   61.00     1      0.00      0.00  657648  582656   1.79      0.00  98304.00      0.00      38  resource_usage_

# Time        UID       PID    %usr %system  %guest   %wait    %CPU   CPU  minflt/s  majflt/s     VSZ     RSS   %MEM   kB_rd/s   kB_wr/s kB_ccwr/s iodelay  Command
21:31:34     1000     89747   57.00    1.00    0.00    0.00   58.00     1      0.00      0.00  657648  582656   1.79      0.00 131072.00      0.00      42  resource_usage_

# Time        UID       PID    %usr %system  %guest   %wait    %CPU   CPU  minflt/s  majflt/s     VSZ     RSS   %MEM   kB_rd/s   kB_wr/s kB_ccwr/s iodelay  Command
21:31:35     1000     89747   61.00    1.00    0.00    0.00   62.00     1      0.00      0.00  657648  582656   1.79      0.00 131072.00      0.00      38  resource_usage_

# Time        UID       PID    %usr %system  %guest   %wait    %CPU   CPU  minflt/s  majflt/s     VSZ     RSS   %MEM   kB_rd/s   kB_wr/s kB_ccwr/s iodelay  Command
21:31:36     1000     89747   70.00    2.00    0.00    0.00   72.00     1      0.00      0.00  657648  582656   1.79      0.00 163840.00      0.00      23  resource_usage_

# Time        UID       PID    %usr %system  %guest   %wait    %CPU   CPU  minflt/s  majflt/s     VSZ     RSS   %MEM   kB_rd/s   kB_wr/s kB_ccwr/s iodelay  Command
21:31:37     1000     89747   64.00    0.00    0.00    0.00   64.00     7      0.00      0.00  657648  582656   1.79      0.00  98304.00      0.00      41  resource_usage_

# Time        UID       PID    %usr %system  %guest   %wait    %CPU   CPU  minflt/s  majflt/s     VSZ     RSS   %MEM   kB_rd/s   kB_wr/s kB_ccwr/s iodelay  Command
21:31:38     1000     89747   60.00    1.00    0.00    0.00   61.00     5      2.00      0.00  657648  582656   1.79      0.00 163840.00      0.00      34  resource_usage_

# Time        UID       PID    %usr %system  %guest   %wait    %CPU   CPU  minflt/s  majflt/s     VSZ     RSS   %MEM   kB_rd/s   kB_wr/s kB_ccwr/s iodelay  Command
21:31:39     1000     89747   63.00    0.00    0.00    0.00   63.00     5      0.00      0.00  657648  582656   1.79      0.00 131072.00      0.00      40  resource_usage_

# Time        UID       PID    %usr %system  %guest   %wait    %CPU   CPU  minflt/s  majflt/s     VSZ     RSS   %MEM   kB_rd/s   kB_wr/s kB_ccwr/s iodelay  Command
21:31:40     1000     89747   63.00    1.00    0.00    0.00   64.00     5      0.00      0.00  657648  582656   1.79      0.00  98304.00      0.00      38  resource_usage_

# Time        UID       PID    %usr %system  %guest   %wait    %CPU   CPU  minflt/s  majflt/s     VSZ     RSS   %MEM   kB_rd/s   kB_wr/s kB_ccwr/s iodelay  Command
21:31:41     1000     89747   58.00    1.00    0.00    0.00   59.00     5      0.00      0.00  657648  582656   1.79      0.00 131072.00      0.00      41  resource_usage_

# Time        UID       PID    %usr %system  %guest   %wait    %CPU   CPU  minflt/s  majflt/s     VSZ     RSS   %MEM   kB_rd/s   kB_wr/s kB_ccwr/s iodelay  Command
21:31:42     1000     89747   60.00    1.00    0.00    0.00   61.00     5      0.00      0.00  657648  582656   1.79      0.00 131072.00      0.00      39  resource_usage_

# Time        UID       PID    %usr %system  %guest   %wait    %CPU   CPU  minflt/s  majflt/s     VSZ     RSS   %MEM   kB_rd/s   kB_wr/s kB_ccwr/s iodelay  Command
21:31:43     1000     89747   62.00    0.00    0.00    0.00   62.00     5      0.00      0.00  657648  582656   1.79      4.00 131072.00      0.00      37  resource_usage_

# Time        UID       PID    %usr %system  %guest   %wait    %CPU   CPU  minflt/s  majflt/s     VSZ     RSS   %MEM   kB_rd/s   kB_wr/s kB_ccwr/s iodelay  Command
21:31:44     1000     89747   61.00    2.00    0.00    0.00   63.00     5      0.00      0.00  657648  582656   1.79      0.00 131072.00      0.00      38  resource_usage_

# Time        UID       PID    %usr %system  %guest   %wait    %CPU   CPU  minflt/s  majflt/s     VSZ     RSS   %MEM   kB_rd/s   kB_wr/s kB_ccwr/s iodelay  Command
21:31:45     1000     89747   62.00    0.00    0.00    0.00   62.00     5      0.00      0.00  657648  582656   1.79      0.00 131072.00      0.00      38  resource_usage_

# Time        UID       PID    %usr %system  %guest   %wait    %CPU   CPU  minflt/s  majflt/s     VSZ     RSS   %MEM   kB_rd/s   kB_wr/s kB_ccwr/s iodelay  Command
21:31:46     1000     89747   60.00    0.00    0.00    1.00   60.00     4      0.00      0.00  657648  582656   1.79      0.00 131072.00      0.00      39  resource_usage_

# Time        UID       PID    %usr %system  %guest   %wait    %CPU   CPU  minflt/s  majflt/s     VSZ     RSS   %MEM   kB_rd/s   kB_wr/s kB_ccwr/s iodelay  Command
21:31:47     1000     89747   62.00    1.00    0.00    0.00   63.00     4      0.00      0.00  657648  582656   1.79      0.00 131072.00      0.00      38  resource_usage_

# Time        UID       PID    %usr %system  %guest   %wait    %CPU   CPU  minflt/s  majflt/s     VSZ     RSS   %MEM   kB_rd/s   kB_wr/s kB_ccwr/s iodelay  Command
21:31:48     1000     89747   57.00    1.00    0.00    0.00   58.00     4      0.00      0.00  657648  582656   1.79      0.00 131072.00      0.00      41  resource_usage_

# Time        UID       PID    %usr %system  %guest   %wait    %CPU   CPU  minflt/s  majflt/s     VSZ     RSS   %MEM   kB_rd/s   kB_wr/s kB_ccwr/s iodelay  Command
21:31:49     1000     89747   65.00    0.00    0.00    0.00   65.00     4      0.00      0.00  657648  582656   1.79      0.00 131072.00      0.00      35  resource_usage_

# Time        UID       PID    %usr %system  %guest   %wait    %CPU   CPU  minflt/s  majflt/s     VSZ     RSS   %MEM   kB_rd/s   kB_wr/s kB_ccwr/s iodelay  Command
21:31:50     1000     89747   69.00    1.00    0.00    0.00   70.00     5      0.00      0.00  657648  582656   1.79      0.00 163840.00      0.00      30  resource_usage_

# Time        UID       PID    %usr %system  %guest   %wait    %CPU   CPU  minflt/s  majflt/s     VSZ     RSS   %MEM   kB_rd/s   kB_wr/s kB_ccwr/s iodelay  Command
21:31:51     1000     89747   69.00    0.00    0.00    0.00   69.00    11      0.00      0.00  657648  582656   1.79      0.00  98304.00      0.00      31  resource_usage_

# Time        UID       PID    %usr %system  %guest   %wait    %CPU   CPU  minflt/s  majflt/s     VSZ     RSS   %MEM   kB_rd/s   kB_wr/s kB_ccwr/s iodelay  Command
21:31:52     1000     89747   60.00    1.00    0.00    0.00   61.00    11      0.00      0.00  657648  582656   1.79      0.00 131072.00      0.00      38  resource_usage_

# Time        UID       PID    %usr %system  %guest   %wait    %CPU   CPU  minflt/s  majflt/s     VSZ     RSS   %MEM   kB_rd/s   kB_wr/s kB_ccwr/s iodelay  Command
21:31:53     1000     89747   60.00    1.00    0.00    0.00   61.00    11      0.00      0.00  657648  582656   1.79      0.00 131072.00      0.00      40  resource_usage_

# Time        UID       PID    %usr %system  %guest   %wait    %CPU   CPU  minflt/s  majflt/s     VSZ     RSS   %MEM   kB_rd/s   kB_wr/s kB_ccwr/s iodelay  Command
21:31:54     1000     89747   64.00    0.00    0.00    0.00   64.00    11      1.00      0.00  657648  582656   1.79      0.00 131072.00      0.00      30  resource_usage_

# Time        UID       PID    %usr %system  %guest   %wait    %CPU   CPU  minflt/s  majflt/s     VSZ     RSS   %MEM   kB_rd/s   kB_wr/s kB_ccwr/s iodelay  Command
21:31:55     1000     89747   68.00    1.00    0.00    0.00   69.00     5      1.00      0.00  657648  582656   1.79      0.00 131072.00      0.00      37  resource_usage_

# Time        UID       PID    %usr %system  %guest   %wait    %CPU   CPU  minflt/s  majflt/s     VSZ     RSS   %MEM   kB_rd/s   kB_wr/s kB_ccwr/s iodelay  Command
21:31:56     1000     89747   77.00    0.00    0.00    0.00   77.00     5      0.00      0.00  657648  582656   1.79     12.00 131072.00      0.00      23  resource_usage_

# Time        UID       PID    %usr %system  %guest   %wait    %CPU   CPU  minflt/s  majflt/s     VSZ     RSS   %MEM   kB_rd/s   kB_wr/s kB_ccwr/s iodelay  Command
21:31:57     1000     89747   66.00    1.00    0.00    0.00   67.00     5      0.00      0.00  657648  582656   1.79      4.00 163840.00      0.00      31  resource_usage_

# Time        UID       PID    %usr %system  %guest   %wait    %CPU   CPU  minflt/s  majflt/s     VSZ     RSS   %MEM   kB_rd/s   kB_wr/s kB_ccwr/s iodelay  Command
21:31:58     1000     89747   68.00    1.00    0.00    1.00   69.00     9      0.00      0.00  657648  582656   1.79      4.00  98304.00      0.00      32  resource_usage_

# Time        UID       PID    %usr %system  %guest   %wait    %CPU   CPU  minflt/s  majflt/s     VSZ     RSS   %MEM   kB_rd/s   kB_wr/s kB_ccwr/s iodelay  Command
21:31:59     1000     89747   68.00    0.00    0.00    0.00   68.00     6      0.00      0.00  657648  582656   1.79      4.00 131072.00      0.00      32  resource_usage_

# Time        UID       PID    %usr %system  %guest   %wait    %CPU   CPU  minflt/s  majflt/s     VSZ     RSS   %MEM   kB_rd/s   kB_wr/s kB_ccwr/s iodelay  Command
21:32:00     1000     89747   66.00    1.00    0.00    0.00   67.00     2      0.00      0.00  657648  582656   1.79      4.00 131072.00      0.00      33  resource_usage_

# Time        UID       PID    %usr %system  %guest   %wait    %CPU   CPU  minflt/s  majflt/s     VSZ     RSS   %MEM   kB_rd/s   kB_wr/s kB_ccwr/s iodelay  Command
21:32:01     1000     89747   67.00    1.00    0.00    0.00   68.00     3      0.00      0.00  657648  582656   1.79      4.00 131072.00      0.00      32  resource_usage_

# Time        UID       PID    %usr %system  %guest   %wait    %CPU   CPU  minflt/s  majflt/s     VSZ     RSS   %MEM   kB_rd/s   kB_wr/s kB_ccwr/s iodelay  Command
21:32:02     1000     89747   74.00    0.00    0.00    0.00   74.00     9      1.00      0.00  657648  582656   1.79      4.00 131072.00      0.00      23  resource_usage_

# Time        UID       PID    %usr %system  %guest   %wait    %CPU   CPU  minflt/s  majflt/s     VSZ     RSS   %MEM   kB_rd/s   kB_wr/s kB_ccwr/s iodelay  Command
21:32:03     1000     89747   70.00    1.00    0.00    0.00   71.00     9      0.00      0.00  657648  582656   1.79      0.00  98304.00      0.00      32  resource_usage_

# Time        UID       PID    %usr %system  %guest   %wait    %CPU   CPU  minflt/s  majflt/s     VSZ     RSS   %MEM   kB_rd/s   kB_wr/s kB_ccwr/s iodelay  Command
21:32:04     1000     89747   68.00    1.00    0.00    0.00   69.00     3      1.00      0.00  657648  582656   1.79      4.00 131072.00      0.00      31  resource_usage_

# Time        UID       PID    %usr %system  %guest   %wait    %CPU   CPU  minflt/s  majflt/s     VSZ     RSS   %MEM   kB_rd/s   kB_wr/s kB_ccwr/s iodelay  Command
21:32:05     1000     89747   75.00    1.00    0.00    0.00   76.00     3      0.00      0.00  657648  582656   1.79      4.00  98304.00      0.00      24  resource_usage_

# Time        UID       PID    %usr %system  %guest   %wait    %CPU   CPU  minflt/s  majflt/s     VSZ     RSS   %MEM   kB_rd/s   kB_wr/s kB_ccwr/s iodelay  Command
21:32:06     1000     89747   67.00    0.00    0.00    0.00   67.00     4      0.00      0.00  657648  582656   1.79      4.00 131072.00      0.00      32  resource_usage_

# Time        UID       PID    %usr %system  %guest   %wait    %CPU   CPU  minflt/s  majflt/s     VSZ     RSS   %MEM   kB_rd/s   kB_wr/s kB_ccwr/s iodelay  Command
21:32:07     1000     89747   89.00    3.00    0.00    0.00   92.00     6     36.00      0.00  657784  582724   1.79   8298.50  32768.00      0.00       9  resource_usage_

# Time        UID       PID    %usr %system  %guest   %wait    %CPU   CPU  minflt/s  majflt/s     VSZ     RSS   %MEM   kB_rd/s   kB_wr/s kB_ccwr/s iodelay  Command
21:32:08     1000     89747   96.00    4.00    0.00    0.00  100.00     6      2.00      0.00  657784  582724   1.79  10594.00      0.00      0.00       0  resource_usage_

# Time        UID       PID    %usr %system  %guest   %wait    %CPU   CPU  minflt/s  majflt/s     VSZ     RSS   %MEM   kB_rd/s   kB_wr/s kB_ccwr/s iodelay  Command
21:32:09     1000     89747   96.00    4.00    0.00    0.00  100.00     6      0.00      0.00  657784  582724   1.79  10582.00      0.00      0.00       0  resource_usage_

# Time        UID       PID    %usr %system  %guest   %wait    %CPU   CPU  minflt/s  majflt/s     VSZ     RSS   %MEM   kB_rd/s   kB_wr/s kB_ccwr/s iodelay  Command
21:32:10     1000     89747   97.00    3.00    0.00    0.00  100.00     6      0.00      0.00  657784  582724   1.79  10564.50      0.00      0.00       0  resource_usage_

# Time        UID       PID    %usr %system  %guest   %wait    %CPU   CPU  minflt/s  majflt/s     VSZ     RSS   %MEM   kB_rd/s   kB_wr/s kB_ccwr/s iodelay  Command
21:32:11     1000     89747   95.00    5.00    0.00    0.00  100.00     6      0.00      0.00  657784  582724   1.79  10568.00      0.00      0.00       0  resource_usage_

# Time        UID       PID    %usr %system  %guest   %wait    %CPU   CPU  minflt/s  majflt/s     VSZ     RSS   %MEM   kB_rd/s   kB_wr/s kB_ccwr/s iodelay  Command
21:32:12     1000     89747   96.00    4.00    0.00    0.00  100.00     6      6.00      0.00  657784  582724   1.79  10508.00      0.00      0.00       0  resource_usage_

# Time        UID       PID    %usr %system  %guest   %wait    %CPU   CPU  minflt/s  majflt/s     VSZ     RSS   %MEM   kB_rd/s   kB_wr/s kB_ccwr/s iodelay  Command
21:32:13     1000     89747   97.00    3.00    0.00    0.00  100.00     6      0.00      0.00  657784  582724   1.79  10641.00      0.00      0.00       0  resource_usage_

# Time        UID       PID    %usr %system  %guest   %wait    %CPU   CPU  minflt/s  majflt/s     VSZ     RSS   %MEM   kB_rd/s   kB_wr/s kB_ccwr/s iodelay  Command
21:32:14     1000     89747   97.00    4.00    0.00    0.00  101.00     6      0.00      0.00  657784  582724   1.79  10644.00      0.00      0.00       0  resource_usage_

# Time        UID       PID    %usr %system  %guest   %wait    %CPU   CPU  minflt/s  majflt/s     VSZ     RSS   %MEM   kB_rd/s   kB_wr/s kB_ccwr/s iodelay  Command
21:32:15     1000     89747   96.00    3.00    0.00    0.00   99.00     6      6.00      0.00  657784  582724   1.79  10656.50      0.00      0.00       0  resource_usage_

# Time        UID       PID    %usr %system  %guest   %wait    %CPU   CPU  minflt/s  majflt/s     VSZ     RSS   %MEM   kB_rd/s   kB_wr/s kB_ccwr/s iodelay  Command
21:32:16     1000     89747   96.00    4.00    0.00    0.00  100.00     6      6.00      0.00  657784  582724   1.79  10591.00      0.00      0.00       0  resource_usage_

# Time        UID       PID    %usr %system  %guest   %wait    %CPU   CPU  minflt/s  majflt/s     VSZ     RSS   %MEM   kB_rd/s   kB_wr/s kB_ccwr/s iodelay  Command
21:32:17     1000     89747   96.00    4.00    0.00    0.00  100.00     6     14.00      0.00  657920  582988   1.79  10662.00      0.00      0.00       0  resource_usage_

# Time        UID       PID    %usr %system  %guest   %wait    %CPU   CPU  minflt/s  majflt/s     VSZ     RSS   %MEM   kB_rd/s   kB_wr/s kB_ccwr/s iodelay  Command
21:32:18     1000     89747   96.00    5.00    0.00    0.00  101.00     6      0.00      0.00  657920  582988   1.79  10660.00      0.00      0.00       0  resource_usage_

# Time        UID       PID    %usr %system  %guest   %wait    %CPU   CPU  minflt/s  majflt/s     VSZ     RSS   %MEM   kB_rd/s   kB_wr/s kB_ccwr/s iodelay  Command
21:32:19     1000     89747   96.00    3.00    0.00    0.00   99.00     6      8.00      0.00  657920  582988   1.79  10663.00      0.00      0.00       0  resource_usage_

# Time        UID       PID    %usr %system  %guest   %wait    %CPU   CPU  minflt/s  majflt/s     VSZ     RSS   %MEM   kB_rd/s   kB_wr/s kB_ccwr/s iodelay  Command
21:32:20     1000     89747   97.00    3.00    0.00    0.00  100.00     6      6.00      0.00  657920  582988   1.79  10692.00      0.00      0.00       0  resource_usage_

# Time        UID       PID    %usr %system  %guest   %wait    %CPU   CPU  minflt/s  majflt/s     VSZ     RSS   %MEM   kB_rd/s   kB_wr/s kB_ccwr/s iodelay  Command
21:32:21     1000     89747   96.00    5.00    0.00    0.00  101.00     6     10.00      0.00  657920  582988   1.79  10677.00      0.00      0.00       0  resource_usage_

# Time        UID       PID    %usr %system  %guest   %wait    %CPU   CPU  minflt/s  majflt/s     VSZ     RSS   %MEM   kB_rd/s   kB_wr/s kB_ccwr/s iodelay  Command
21:32:22     1000     89747   97.00    3.00    0.00    0.00  100.00     6      0.00      0.00  657920  582988   1.79  10617.00      0.00      0.00       0  resource_usage_

# Time        UID       PID    %usr %system  %guest   %wait    %CPU   CPU  minflt/s  majflt/s     VSZ     RSS   %MEM   kB_rd/s   kB_wr/s kB_ccwr/s iodelay  Command
21:32:23     1000     89747   97.00    2.00    0.00    0.00   99.00     6      0.00      0.00  657920  582988   1.79  10655.00      0.00      0.00       0  resource_usage_

# Time        UID       PID    %usr %system  %guest   %wait    %CPU   CPU  minflt/s  majflt/s     VSZ     RSS   %MEM   kB_rd/s   kB_wr/s kB_ccwr/s iodelay  Command
21:32:24     1000     89747   99.00    2.00    0.00    0.00  101.00     6      8.00      0.00  658056  582988   1.79  10598.50      0.00      0.00       0  resource_usage_

# Time        UID       PID    %usr %system  %guest   %wait    %CPU   CPU  minflt/s  majflt/s     VSZ     RSS   %MEM   kB_rd/s   kB_wr/s kB_ccwr/s iodelay  Command
21:32:25     1000     89747   96.00    3.00    0.00    0.00   99.00     6     12.00      0.00  658056  582988   1.79  10546.00      0.00      0.00       0  resource_usage_

# Time        UID       PID    %usr %system  %guest   %wait    %CPU   CPU  minflt/s  majflt/s     VSZ     RSS   %MEM   kB_rd/s   kB_wr/s kB_ccwr/s iodelay  Command
21:32:26     1000     89747   98.00    3.00    0.00    0.00  101.00     6     12.00      0.00  658056  583252   1.79  10627.00      0.00      0.00       0  resource_usage_

# Time        UID       PID    %usr %system  %guest   %wait    %CPU   CPU  minflt/s  majflt/s     VSZ     RSS   %MEM   kB_rd/s   kB_wr/s kB_ccwr/s iodelay  Command
21:32:27     1000     89747   96.00    4.00    0.00    0.00  100.00     6      0.00      0.00  658056  583252   1.79  10708.00      0.00      0.00       0  resource_usage_

# Time        UID       PID    %usr %system  %guest   %wait    %CPU   CPU  minflt/s  majflt/s     VSZ     RSS   %MEM   kB_rd/s   kB_wr/s kB_ccwr/s iodelay  Command
21:32:28     1000     89747   96.00    3.00    0.00    0.00   99.00     6      0.00      0.00  658056  583252   1.79  10566.00      0.00      0.00       0  resource_usage_

# Time        UID       PID    %usr %system  %guest   %wait    %CPU   CPU  minflt/s  majflt/s     VSZ     RSS   %MEM   kB_rd/s   kB_wr/s kB_ccwr/s iodelay  Command
21:32:29     1000     89747   94.00    7.00    0.00    0.00  101.00     6     12.00      0.00  658184  583280   1.79  10612.50      0.00      0.00       0  resource_usage_

# Time        UID       PID    %usr %system  %guest   %wait    %CPU   CPU  minflt/s  majflt/s     VSZ     RSS   %MEM   kB_rd/s   kB_wr/s kB_ccwr/s iodelay  Command
21:32:30     1000     89747   97.00    3.00    0.00    0.00  100.00     6      4.00      0.00  658184  583280   1.79  10667.00      0.00      0.00       0  resource_usage_

# Time        UID       PID    %usr %system  %guest   %wait    %CPU   CPU  minflt/s  majflt/s     VSZ     RSS   %MEM   kB_rd/s   kB_wr/s kB_ccwr/s iodelay  Command
21:32:31     1000     89747   96.00    4.00    0.00    0.00  100.00     6      6.00      0.00  658184  583280   1.79  10596.00      0.00      0.00       0  resource_usage_

# Time        UID       PID    %usr %system  %guest   %wait    %CPU   CPU  minflt/s  majflt/s     VSZ     RSS   %MEM   kB_rd/s   kB_wr/s kB_ccwr/s iodelay  Command
21:32:32     1000     89747   97.00    3.00    0.00    0.00  100.00     6      0.00      0.00  658184  583280   1.79  10559.00      0.00      0.00       0  resource_usage_

# Time        UID       PID    %usr %system  %guest   %wait    %CPU   CPU  minflt/s  majflt/s     VSZ     RSS   %MEM   kB_rd/s   kB_wr/s kB_ccwr/s iodelay  Command
21:32:33     1000     89747   96.00    4.00    0.00    0.00  100.00     6      8.00      0.00  658184  583280   1.79  10636.00      0.00      0.00       0  resource_usage_

# Time        UID       PID    %usr %system  %guest   %wait    %CPU   CPU  minflt/s  majflt/s     VSZ     RSS   %MEM   kB_rd/s   kB_wr/s kB_ccwr/s iodelay  Command
21:32:34     1000     89747   97.00    2.00    0.00    0.00   99.00     6     12.00      0.00  658320  583280   1.79  10640.00      0.00      0.00       0  resource_usage_

# Time        UID       PID    %usr %system  %guest   %wait    %CPU   CPU  minflt/s  majflt/s     VSZ     RSS   %MEM   kB_rd/s   kB_wr/s kB_ccwr/s iodelay  Command