1,Faster,100,5000000,2500000,32,128,89951,5000000


resource usage stats

Linux 5.4.0-42-generic (arcon1) 	10/24/2020 	_x86_64_	(64 CPU)

# Time        UID       PID    %usr %system  %guest   %wait    %CPU   CPU  minflt/s  majflt/s     VSZ     RSS   %MEM   kB_rd/s   kB_wr/s kB_ccwr/s iodelay  Command
08:08:16 PM  1006    217663   77.00   22.00    0.00    0.00   99.00    21 144424.00      0.00  590180  582528   0.22      0.00      4.00      0.00       0  perf_experiment

# Time        UID       PID    %usr %system  %guest   %wait    %CPU   CPU  minflt/s  majflt/s     VSZ     RSS   %MEM   kB_rd/s   kB_wr/s kB_ccwr/s iodelay  Command
08:08:17 PM  1006    217663   87.00    1.00    0.00    0.00   88.00    21      2.00      0.00  590180  582528   0.22      0.00 163840.00      0.00      12  perf_experiment

# Time        UID       PID    %usr %system  %guest   %wait    %CPU   CPU  minflt/s  majflt/s     VSZ     RSS   %MEM   kB_rd/s   kB_wr/s kB_ccwr/s iodelay  Command
08:08:18 PM  1006    217663   86.00    2.00    0.00    0.00   88.00    21      1.00      0.00  590180  582528   0.22      0.00 163840.00      0.00      11  perf_experiment

# Time        UID       PID    %usr %system  %guest   %wait    %CPU   CPU  minflt/s  majflt/s     VSZ     RSS   %MEM   kB_rd/s   kB_wr/s kB_ccwr/s iodelay  Command
08:08:19 PM  1006    217663   84.00    1.00    0.00    0.00   85.00    21      2.00      0.00  590180  582528   0.22      0.00 196608.00      0.00      16  perf_experiment

# Time        UID       PID    %usr %system  %guest   %wait    %CPU   CPU  minflt/s  majflt/s     VSZ     RSS   %MEM   kB_rd/s   kB_wr/s kB_ccwr/s iodelay  Command
08:08:20 PM  1006    217663   88.00    1.00    0.00    0.00   89.00    21      1.00      0.00  590180  582528   0.22      0.00 131072.00      0.00      10  perf_experiment

# Time        UID       PID    %usr %system  %guest   %wait    %CPU   CPU  minflt/s  majflt/s     VSZ     RSS   %MEM   kB_rd/s   kB_wr/s kB_ccwr/s iodelay  Command
08:08:21 PM  1006    217663   87.00    2.00    0.00    0.00   89.00    21      1.00      0.00  590180  582528   0.22      0.00 163840.00      0.00      12  perf_experiment

# Time        UID       PID    %usr %system  %guest   %wait    %CPU   CPU  minflt/s  majflt/s     VSZ     RSS   %MEM   kB_rd/s   kB_wr/s kB_ccwr/s iodelay  Command
08:08:22 PM  1006    217663   89.00    1.00    0.00    0.00   90.00    21      0.00      0.00  590180  582528   0.22      0.00 131072.00      0.00      10  perf_experiment

# Time        UID       PID    %usr %system  %guest   %wait    %CPU   CPU  minflt/s  majflt/s     VSZ     RSS   %MEM   kB_rd/s   kB_wr/s kB_ccwr/s iodelay  Command
08:08:23 PM  1006    217663   96.00    2.00    0.00    0.00   98.00    21     47.00      0.00  658040  583144   0.22   6472.50  32768.00      0.00       2  perf_experiment

# Time        UID       PID    %usr %system  %guest   %wait    %CPU   CPU  minflt/s  majflt/s     VSZ     RSS   %MEM   kB_rd/s   kB_wr/s kB_ccwr/s iodelay  Command
08:08:24 PM  1006    217663   96.00    4.00    0.00    0.00  100.00    21   7081.00      0.00  658040  583152   0.22   8476.00      0.00      0.00       0  perf_experiment

# Time        UID       PID    %usr %system  %guest   %wait    %CPU   CPU  minflt/s  majflt/s     VSZ     RSS   %MEM   kB_rd/s   kB_wr/s kB_ccwr/s iodelay  Command
08:08:25 PM  1006    217663   97.00    2.00    0.00    0.00   99.00    53   4265.00      0.00  658040  583152   0.22   8507.00      0.00      0.00       0  perf_experiment

# Time        UID       PID    %usr %system  %guest   %wait    %CPU   CPU  minflt/s  majflt/s     VSZ     RSS   %MEM   kB_rd/s   kB_wr/s kB_ccwr/s iodelay  Command
08:08:26 PM  1006    217663   97.00    4.00    0.00    0.00  101.00    53   1637.00      0.00  658040  583152   0.22   8474.50      0.00      0.00       0  perf_experiment

# Time        UID       PID    %usr %system  %guest   %wait    %CPU   CPU  minflt/s  majflt/s     VSZ     RSS   %MEM   kB_rd/s   kB_wr/s kB_ccwr/s iodelay  Command
08:08:27 PM  1006    217663   98.00    2.00    0.00    0.00  100.00    53   3031.00      0.00  658040  583152   0.22   8506.00      0.00      0.00       0  perf_experiment

# Time        UID       PID    %usr %system  %guest   %wait    %CPU   CPU  minflt/s  majflt/s     VSZ     RSS   %MEM   kB_rd/s   kB_wr/s kB_ccwr/s iodelay  Command
08:08:28 PM  1006    217663   98.00    2.00    0.00    0.00  100.00    53   2956.00      0.00  658040  583160   0.22   8488.50      0.00      0.00       0  perf_experiment

# Time        UID       PID    %usr %system  %guest   %wait    %CPU   CPU  minflt/s  majflt/s     VSZ     RSS   %MEM   kB_rd/s   kB_wr/s kB_ccwr/s iodelay  Command
08:08:29 PM  1006    217663   97.00    2.00    0.00    0.00   99.00    53   2741.00      0.00  658040  583160   0.22   8471.50      0.00      0.00       0  perf_experiment

# Time        UID       PID    %usr %system  %guest   %wait    %CPU   CPU  minflt/s  majflt/s     VSZ     RSS   %MEM   kB_rd/s   kB_wr/s kB_ccwr/s iodelay  Command
08:08:30 PM  1006    217663   97.00    3.00    0.00    0.00  100.00    53   2665.00      0.00  658040  583160   0.22   8482.50      0.00      0.00       0  perf_experiment

# Time        UID       PID    %usr %system  %guest   %wait    %CPU   CPU  minflt/s  majflt/s     VSZ     RSS   %MEM   kB_rd/s   kB_wr/s kB_ccwr/s iodelay  Command
08:08:31 PM  1006    217663   97.00    4.00    0.00    0.00  101.00    53  12694.00      0.00  658040  583160   0.22   8389.50      0.00      0.00       0  perf_experiment

# Time        UID       PID    %usr %system  %guest   %wait    %CPU   CPU  minflt/s  majflt/s     VSZ     RSS   %MEM   kB_rd/s   kB_wr/s kB_ccwr/s iodelay  Command
08:08:32 PM  1006    217663   98.00    1.00    0.00    0.00   99.00    53   2962.00      0.00  658040  583160   0.22   8499.50      0.00      0.00       0  perf_experiment

# Time        UID       PID    %usr %system  %guest   %wait    %CPU   CPU  minflt/s  majflt/s     VSZ     RSS   %MEM   kB_rd/s   kB_wr/s kB_ccwr/s iodelay  Command
08:08:33 PM  1006    217663   97.00    3.00    0.00    0.00  100.00    53   2811.00      0.00  658040  583160   0.22   8518.50      0.00      0.00       0  perf_experiment

# Time        UID       PID    %usr %system  %guest   %wait    %CPU   CPU  minflt/s  majflt/s     VSZ     RSS   %MEM   kB_rd/s   kB_wr/s kB_ccwr/s iodelay  Command
08:08:34 PM  1006    217663   99.00    2.00    0.00    0.00  101.00    53   3160.00      0.00  658040  583160   0.22   8563.50      0.00      0.00       0  perf_experiment

# Time        UID       PID    %usr %system  %guest   %wait    %CPU   CPU  minflt/s  majflt/s     VSZ     RSS   %MEM   kB_rd/s   kB_wr/s kB_ccwr/s iodelay  Command
08:08:35 PM  1006    217663   96.00    3.00    0.00    0.00   99.00    53   2866.00      0.00  658040  583160   0.22   8571.50      0.00      0.00       0  perf_experiment

# Time        UID       PID    %usr %system  %guest   %wait    %CPU   CPU  minflt/s  majflt/s     VSZ     RSS   %MEM   kB_rd/s   kB_wr/s kB_ccwr/s iodelay  Command
08:08:36 PM  1006    217663   96.00    4.00    0.00    0.00  100.00    53   2779.00      0.00  658040  583160   0.22   8572.00      0.00      0.00       0  perf_experiment

# Time        UID       PID    %usr %system  %guest   %wait    %CPU   CPU  minflt/s  majflt/s     VSZ     RSS   %MEM   kB_rd/s   kB_wr/s kB_ccwr/s iodelay  Command
08:08:37 PM  1006    217663   97.00    3.00    0.00    0.00  100.00    53   2704.00      0.00  658040  583160   0.22   8589.50      0.00      0.00       0  perf_experiment

# Time        UID       PID    %usr %system  %guest   %wait    %CPU   CPU  minflt/s  majflt/s     VSZ     RSS   %MEM   kB_rd/s   kB_wr/s kB_ccwr/s iodelay  Command
08:08:38 PM  1006    217663   98.00    2.00    0.00    0.00  100.00    53   2487.00      0.00  658040  583160   0.22   8599.00      0.00      0.00       0  perf_experiment

# Time        UID       PID    %usr %system  %guest   %wait    %CPU   CPU  minflt/s  majflt/s     VSZ     RSS   %MEM   kB_rd/s   kB_wr/s kB_ccwr/s iodelay  Command
08:08:39 PM  1006    217663   97.00    3.00    0.00    0.00  100.00    53  12397.00      0.00  658040  583160   0.22   8490.00      0.00      0.00       0  perf_experiment

# Time        UID       PID    %usr %system  %guest   %wait    %CPU   CPU  minflt/s  majflt/s     VSZ     RSS   %MEM   kB_rd/s   kB_wr/s kB_ccwr/s iodelay  Command
08:08:40 PM  1006    217663   99.00    1.00    0.00    0.00  100.00    53   3221.00      0.00  658040  583160   0.22   8598.00      0.00      0.00       0  perf_experiment

# Time        UID       PID    %usr %system  %guest   %wait    %CPU   CPU  minflt/s  majflt/s     VSZ     RSS   %MEM   kB_rd/s   kB_wr/s kB_ccwr/s iodelay  Command
08:08:41 PM  1006    217663   97.00    4.00    0.00    0.00  101.00    53   2607.00      0.00  658040  583160   0.22   8588.00      0.00      0.00       0  perf_experiment

# Time        UID       PID    %usr %system  %guest   %wait    %CPU   CPU  minflt/s  majflt/s     VSZ     RSS   %MEM   kB_rd/s   kB_wr/s kB_ccwr/s iodelay  Command
08:08:42 PM  1006    217663   97.00    2.00    0.00    0.00   99.00    53   2700.00      0.00  658040  583160   0.22   8540.50      0.00      0.00       0  perf_experiment

# Time        UID       PID    %usr %system  %guest   %wait    %CPU   CPU  minflt/s  majflt/s     VSZ     RSS   %MEM   kB_rd/s   kB_wr/s kB_ccwr/s iodelay  Command
08:08:43 PM  1006    217663   99.00    1.00    0.00    0.00  100.00    53   2891.00      0.00  658040  583160   0.22   8558.00      0.00      0.00       0  perf_experiment

# Time        UID       PID    %usr %system  %guest   %wait    %CPU   CPU  minflt/s  majflt/s     VSZ     RSS   %MEM   kB_rd/s   kB_wr/s kB_ccwr/s iodelay  Command
08:08:44 PM  1006    217663   98.00    3.00    0.00    0.00  101.00    53   2867.00      0.00  658040  583160   0.22   8613.00      0.00      0.00       0  perf_experiment

# Time        UID       PID    %usr %system  %guest   %wait    %CPU   CPU  minflt/s  majflt/s     VSZ     RSS   %MEM   kB_rd/s   kB_wr/s kB_ccwr/s iodelay  Command
08:08:45 PM  1006    217663   98.00    2.00    0.00    0.00  100.00    53   2733.00      0.00  658040  583160   0.22   8575.50      0.00      0.00       0  perf_experiment

# Time        UID       PID    %usr %system  %guest   %wait    %CPU   CPU  minflt/s  majflt/s     VSZ     RSS   %MEM   kB_rd/s   kB_wr/s kB_ccwr/s iodelay  Command
08:08:46 PM  1006    217663   98.00    1.00    0.00    0.00   99.00    53   2590.00      0.00  658040  583160   0.22   8553.00      0.00      0.00       0  perf_experiment

# Time        UID       PID    %usr %system  %guest   %wait    %CPU   CPU  minflt/s  majflt/s     VSZ     RSS   %MEM   kB_rd/s   kB_wr/s kB_ccwr/s iodelay  Command
08:08:47 PM  1006    217663  100.00    1.00    0.00    0.00  101.00    53   2571.00      0.00  658040  583160   0.22   8587.50      0.00      0.00       0  perf_experiment

# Time        UID       PID    %usr %system  %guest   %wait    %CPU   CPU  minflt/s  majflt/s     VSZ     RSS   %MEM   kB_rd/s   kB_wr/s kB_ccwr/s iodelay  Command
08:08:48 PM  1006    217663   97.00    2.00    0.00    0.00   99.00    53   2371.00      0.00  658040  583160   0.22   8556.50      0.00      0.00       0  perf_experiment

# Time        UID       PID    %usr %system  %guest   %wait    %CPU   CPU  minflt/s  majflt/s     VSZ     RSS   %MEM   kB_rd/s   kB_wr/s kB_ccwr/s iodelay  Command
08:08:49 PM  1006    217663   99.00    2.00    0.00    0.00  101.00    53   2338.00      0.00  658040  583160   0.22   8578.50      0.00      0.00       0  perf_experiment

# Time        UID       PID    %usr %system  %guest   %wait    %CPU   CPU  minflt/s  majflt/s     VSZ     RSS   %MEM   kB_rd/s   kB_wr/s kB_ccwr/s iodelay  Command
08:08:50 PM  1006    217663   96.00    3.00    0.00    0.00   99.00    53  12651.00      0.00  658040  583160   0.22   8469.50      0.00      0.00       0  perf_experiment

# Time        UID       PID    %usr %system  %guest   %wait    %CPU   CPU  minflt/s  majflt/s     VSZ     RSS   %MEM   kB_rd/s   kB_wr/s kB_ccwr/s iodelay  Command
08:08:51 PM  1006    217663   98.00    2.00    0.00    0.00  100.00    53   2756.00      0.00  658040  583160   0.22   8605.00      0.00      0.00       0  perf_experiment

# Time        UID       PID    %usr %system  %guest   %wait    %CPU   CPU  minflt/s  majflt/s     VSZ     RSS   %MEM   kB_rd/s   kB_wr/s kB_ccwr/s iodelay  Command
08:08:52 PM  1006    217663  100.00    1.00    0.00    0.00  101.00    53   2419.00      0.00  658040  583168   0.22   8567.00      0.00      0.00       0  perf_experiment

# Time        UID       PID    %usr %system  %guest   %wait    %CPU   CPU  minflt/s  majflt/s     VSZ     RSS   %MEM   kB_rd/s   kB_wr/s kB_ccwr/s iodelay  Command
08:08:53 PM  1006    217663   97.00    3.00    0.00    0.00  100.00    53   2371.00      0.00  658040  583208   0.22   8581.00      0.00      0.00       0  perf_experiment

# Time        UID       PID    %usr %system  %guest   %wait    %CPU   CPU  minflt/s  majflt/s     VSZ     RSS   %MEM   kB_rd/s   kB_wr/s kB_ccwr/s iodelay  Command
08:08:54 PM  1006    217663   97.00    2.00    0.00    0.00   99.00    53   2778.00      0.00  658040  583208   0.22   8509.00      0.00      0.00       0  perf_experiment

# Time        UID       PID    %usr %system  %guest   %wait    %CPU   CPU  minflt/s  majflt/s     VSZ     RSS   %MEM   kB_rd/s   kB_wr/s kB_ccwr/s iodelay  Command
08:08:55 PM  1006    217663   99.00    1.00    0.00    0.00  100.00    53   2934.00      0.00  658040  583208   0.22   8593.00      0.00      0.00       0  perf_experiment

# Time        UID       PID    %usr %system  %guest   %wait    %CPU   CPU  minflt/s  majflt/s     VSZ     RSS   %MEM   kB_rd/s   kB_wr/s kB_ccwr/s iodelay  Command
08:08:56 PM  1006    217663   97.00    3.00    0.00    0.00  100.00    53   2754.00      0.00  658040  583208   0.22   8575.00      0.00      0.00       0  perf_experiment

# Time        UID       PID    %usr %system  %guest   %wait    %CPU   CPU  minflt/s  majflt/s     VSZ     RSS   %MEM   kB_rd/s   kB_wr/s kB_ccwr/s iodelay  Command
08:08:57 PM  1006    217663   98.00    2.00    0.00    0.00  100.00    53   2711.00      0.00  658040  583208   0.22   8523.50      0.00      0.00       0  perf_experiment

# Time        UID       PID    %usr %system  %guest   %wait    %CPU   CPU  minflt/s  majflt/s     VSZ     RSS   %MEM   kB_rd/s   kB_wr/s kB_ccwr/s iodelay  Command
08:08:58 PM  1006    217663  100.00    1.00    0.00    0.00  101.00    53   2481.00      0.00  658040  583208   0.22   8550.00      0.00      0.00       0  perf_experiment

# Time        UID       PID    %usr %system  %guest   %wait    %CPU   CPU  minflt/s  majflt/s     VSZ     RSS   %MEM   kB_rd/s   kB_wr/s kB_ccwr/s iodelay  Command
08:08:59 PM  1006    217663   98.00    2.00    0.00    0.00  100.00    53   2530.00      0.00  658040  583216   0.22   8584.00      0.00      0.00       0  perf_experiment

# Time        UID       PID    %usr %system  %guest   %wait    %CPU   CPU  minflt/s  majflt/s     VSZ     RSS   %MEM   kB_rd/s   kB_wr/s kB_ccwr/s iodelay  Command
08:09:00 PM  1006    217663   98.00    2.00    0.00    0.00  100.00    53   2263.00      0.00  658040  583216   0.22   8646.00      0.00      0.00       0  perf_experiment

# Time        UID       PID    %usr %system  %guest   %wait    %CPU   CPU  minflt/s  majflt/s     VSZ     RSS   %MEM   kB_rd/s   kB_wr/s kB_ccwr/s iodelay  Command
08:09:01 PM  1006    217663   99.00    1.00    0.00    0.00  100.00    53   2228.00      0.00  658040  583216   0.22   8583.50      0.00      0.00       0  perf_experiment

# Time        UID       PID    %usr %system  %guest   %wait    %CPU   CPU  minflt/s  majflt/s     VSZ     RSS   %MEM   kB_rd/s   kB_wr/s kB_ccwr/s iodelay  Command
08:09:02 PM  1006    217663   98.00    1.00    0.00    0.00   99.00    53   2120.00      0.00  658040  583216   0.22   8554.00      0.00      0.00       0  perf_experiment

# Time        UID       PID    %usr %system  %guest   %wait    %CPU   CPU  minflt/s  majflt/s     VSZ     RSS   %MEM   kB_rd/s   kB_wr/s kB_ccwr/s iodelay  Command
08:09:03 PM  1006    217663   99.00    1.00    0.00    0.00  100.00    53   5222.00      0.00  658040  583232   0.22   8513.00      0.00      0.00       0  perf_experiment

# Time        UID       PID    %usr %system  %guest   %wait    %CPU   CPU  minflt/s  majflt/s     VSZ     RSS   %MEM   kB_rd/s   kB_wr/s kB_ccwr/s iodelay  Command
08:09:04 PM  1006    217663   97.00    3.00    0.00    0.00  100.00    53   9450.00      0.00  658040  583232   0.22   8509.50      0.00      0.00       0  perf_experiment

# Time        UID       PID    %usr %system  %guest   %wait    %CPU   CPU  minflt/s  majflt/s     VSZ     RSS   %MEM   kB_rd/s   kB_wr/s kB_ccwr/s iodelay  Command
08:09:05 PM  1006    217663   98.00    2.00    0.00    0.00  100.00    53   2474.00      0.00  658040  583232   0.22   8571.50      0.00      0.00       0  perf_experiment

# Time        UID       PID    %usr %system  %guest   %wait    %CPU   CPU  minflt/s  majflt/s     VSZ     RSS   %MEM   kB_rd/s   kB_wr/s kB_ccwr/s iodelay  Command
08:09:06 PM  1006    217663   97.00    4.00    0.00    0.00  101.00    53   2276.00      0.00  658160  583280   0.22   8585.00      0.00      0.00       0  perf_experiment

# Time        UID       PID    %usr %system  %guest   %wait    %CPU   CPU  minflt/s  majflt/s     VSZ     RSS   %MEM   kB_rd/s   kB_wr/s kB_ccwr/s iodelay  Command
08:09:07 PM  1006    217663   96.00    3.00    0.00    0.00   99.00    53   2152.00      0.00  658160  583280   0.22   8565.50      0.00      0.00       0  perf_experiment

# Time        UID       PID    %usr %system  %guest   %wait    %CPU   CPU  minflt/s  majflt/s     VSZ     RSS   %MEM   kB_rd/s   kB_wr/s kB_ccwr/s iodelay  Command
08:09:08 PM  1006    217663   99.00    1.00    0.00    0.00  100.00    53   2122.00      0.00  658160  583320   0.22   8549.00      0.00      0.00       0  perf_experiment

# Time        UID       PID    %usr %system  %guest   %wait    %CPU   CPU  minflt/s  majflt/s     VSZ     RSS   %MEM   kB_rd/s   kB_wr/s kB_ccwr/s iodelay  Command
08:09:09 PM  1006    217663   96.00    4.00    0.00    0.00  100.00    53   2631.00      0.00  658160  583320   0.22   8545.00      0.00      0.00       0  perf_experiment

# Time        UID       PID    %usr %system  %guest   %wait    %CPU   CPU  minflt/s  majflt/s     VSZ     RSS   %MEM   kB_rd/s   kB_wr/s kB_ccwr/s iodelay  Command
08:09:10 PM  1006    217663   98.00    2.00    0.00    0.00  100.00    53   3030.00      0.00  658160  583320   0.22   8580.00      0.00      0.00       0  perf_experiment

# Time        UID       PID    %usr %system  %guest   %wait    %CPU   CPU  minflt/s  majflt/s     VSZ     RSS   %MEM   kB_rd/s   kB_wr/s kB_ccwr/s iodelay  Command
08:09:11 PM  1006    217663   98.00    2.00    0.00    0.00  100.00    53   2712.00      0.00  658160  583336   0.22   8556.50      0.00      0.00       0  perf_experiment

# Time        UID       PID    %usr %system  %guest   %wait    %CPU   CPU  minflt/s  majflt/s     VSZ     RSS   %MEM   kB_rd/s   kB_wr/s kB_ccwr/s iodelay  Command
08:09:12 PM  1006    217663   99.00    1.00    0.00    0.00  100.00    53   2649.00      0.00  658160  583336   0.22   8562.00      0.00      0.00       0  perf_experiment

# Time        UID       PID    %usr %system  %guest   %wait    %CPU   CPU  minflt/s  majflt/s     VSZ     RSS   %MEM   kB_rd/s   kB_wr/s kB_ccwr/s iodelay  Command
08:09:13 PM  1006    217663   98.00    3.00    0.00    0.00  101.00    53   2590.00      0.00  658160  583336   0.22   8567.50      0.00      0.00       0  perf_experiment

# Time        UID       PID    %usr %system  %guest   %wait    %CPU   CPU  minflt/s  majflt/s     VSZ     RSS   %MEM   kB_rd/s   kB_wr/s kB_ccwr/s iodelay  Command
08:09:14 PM  1006    217663   98.00    1.00    0.00    0.00   99.00    53   2527.00      0.00  658160  583336   0.22   8569.00      0.00      0.00       0  perf_experiment

# Time        UID       PID    %usr %system  %guest   %wait    %CPU   CPU  minflt/s  majflt/s     VSZ     RSS   %MEM   kB_rd/s   kB_wr/s kB_ccwr/s iodelay  Command
08:09:15 PM  1006    217663   98.00    2.00    0.00    0.00  100.00    53   2231.00      0.00  658160  583336   0.22   8553.50      0.00      0.00       0  perf_experiment

# Time        UID       PID    %usr %system  %guest   %wait    %CPU   CPU  minflt/s  majflt/s     VSZ     RSS   %MEM   kB_rd/s   kB_wr/s kB_ccwr/s iodelay  Command
08:09:16 PM  1006    217663   99.00    1.00    0.00    0.00  100.00    53   2143.00      0.00  658160  583336   0.22   8590.00      0.00      0.00       0  perf_experiment

# Time        UID       PID    %usr %system  %guest   %wait    %CPU   CPU  minflt/s  majflt/s     VSZ     RSS   %MEM   kB_rd/s   kB_wr/s kB_ccwr/s iodelay  Command
08:09:17 PM  1006    217663   99.00    2.00    0.00    0.00  101.00    53   2131.00      0.00  658160  583336   0.22   8532.50      0.00      0.00       0  perf_experiment

# Time        UID       PID    %usr %system  %guest   %wait    %CPU   CPU  minflt/s  majflt/s     VSZ     RSS   %MEM   kB_rd/s   kB_wr/s kB_ccwr/s iodelay  Command
08:09:18 PM  1006    217663   98.00    1.00    0.00    0.00   99.00    53   2140.00      0.00  658160  583336   0.22   8581.50      0.00      0.00       0  perf_experiment

# Time        UID       PID    %usr %system  %guest   %wait    %CPU   CPU  minflt/s  majflt/s     VSZ     RSS   %MEM   kB_rd/s   kB_wr/s kB_ccwr/s iodelay  Command
08:09:19 PM  1006    217663   97.00    3.00    0.00    0.00  100.00    53   1857.00      0.00  658160  583336   0.22   8570.50      0.00      0.00       0  perf_experiment

# Time        UID       PID    %usr %system  %guest   %wait    %CPU   CPU  minflt/s  majflt/s     VSZ     RSS   %MEM   kB_rd/s   kB_wr/s kB_ccwr/s iodelay  Command
08:09:20 PM  1006    217663   96.00    4.00    0.00    0.00  100.00    53   1874.00      0.00  658160  583336   0.22   8579.00      0.00      0.00       0  perf_experiment

# Time        UID       PID    %usr %system  %guest   %wait    %CPU   CPU  minflt/s  majflt/s     VSZ     RSS   %MEM   kB_rd/s   kB_wr/s kB_ccwr/s iodelay  Command
08:09:21 PM  1006    217663   98.00    2.00    0.00    0.00  100.00    53   2308.00      0.00  658160  583336   0.22   8554.00      0.00      0.00       0  perf_experiment

# Time        UID       PID    %usr %system  %guest   %wait    %CPU   CPU  minflt/s  majflt/s     VSZ     RSS   %MEM   kB_rd/s   kB_wr/s kB_ccwr/s iodelay  Command
08:09:22 PM  1006    217663   97.00    4.00    0.00    0.00  101.00    53  11855.00      0.00  658160  583336   0.22   8515.50      0.00      0.00       0  perf_experiment

# Time        UID       PID    %usr %system  %guest   %wait    %CPU   CPU  minflt/s  majflt/s     VSZ     RSS   %MEM   kB_rd/s   kB_wr/s kB_ccwr/s iodelay  Command
08:09:23 PM  1006    217663   96.00    4.00    0.00    0.00  100.00    53   2393.00      0.00  658160  583336   0.22   8557.00      0.00      0.00       0  perf_experiment

# Time        UID       PID    %usr %system  %guest   %wait    %CPU   CPU  minflt/s  majflt/s     VSZ     RSS   %MEM   kB_rd/s   kB_wr/s kB_ccwr/s iodelay  Command
08:09:24 PM  1006    217663   97.00    2.00    0.00    0.00   99.00    53   2150.00      0.00  658160  583336   0.22   8574.00      0.00      0.00       0  perf_experiment

# Time        UID       PID    %usr %system  %guest   %wait    %CPU   CPU  minflt/s  majflt/s     VSZ     RSS   %MEM   kB_rd/s   kB_wr/s kB_ccwr/s iodelay  Command
08:09:25 PM  1006    217663   98.00    2.00    0.00    0.00  100.00    53   2044.00      0.00  658160  583336   0.22   8559.00      0.00      0.00       0  perf_experiment

# Time        UID       PID    %usr %system  %guest   %wait    %CPU   CPU  minflt/s  majflt/s     VSZ     RSS   %MEM   kB_rd/s   kB_wr/s kB_ccwr/s iodelay  Command
08:09:26 PM  1006    217663   97.00    3.00    0.00    0.00  100.00    53   2006.00      0.00  658160  583384   0.22   8586.00      0.00      0.00       0  perf_experiment

# Time        UID       PID    %usr %system  %guest   %wait    %CPU   CPU  minflt/s  majflt/s     VSZ     RSS   %MEM   kB_rd/s   kB_wr/s kB_ccwr/s iodelay  Command
08:09:27 PM  1006    217663   98.00    3.00    0.00    0.00  101.00    53   1869.00      0.00  658160  583384   0.22   8583.00      0.00      0.00       0  perf_experiment

# Time        UID       PID    %usr %system  %guest   %wait    %CPU   CPU  minflt/s  majflt/s     VSZ     RSS   %MEM   kB_rd/s   kB_wr/s kB_ccwr/s iodelay  Command
08:09:28 PM  1006    217663   99.00    0.00    0.00    0.00   99.00    53   1823.00      0.00  658160  583384   0.22   8550.50      0.00      0.00       0  perf_experiment

# Time        UID       PID    %usr %system  %guest   %wait    %CPU   CPU  minflt/s  majflt/s     VSZ     RSS   %MEM   kB_rd/s   kB_wr/s kB_ccwr/s iodelay  Command
08:09:29 PM  1006    217663   97.00    3.00    0.00    0.00  100.00    53   2818.00      0.00  658160  583384   0.22   8521.00      0.00      0.00       0  perf_experiment

# Time        UID       PID    %usr %system  %guest   %wait    %CPU   CPU  minflt/s  majflt/s     VSZ     RSS   %MEM   kB_rd/s   kB_wr/s kB_ccwr/s iodelay  Command
08:09:30 PM  1006    217663   97.00    3.00    0.00    0.00  100.00    53   2809.00      0.00  658296  583416   0.22   8581.00      0.00      0.00       0  perf_experiment

# Time        UID       PID    %usr %system  %guest   %wait    %CPU   CPU  minflt/s  majflt/s     VSZ     RSS   %MEM   kB_rd/s   kB_wr/s kB_ccwr/s iodelay  Command
08:09:31 PM  1006    217663   98.00    2.00    0.00    0.00  100.00    53   2611.00      0.00  658296  583416   0.22   8579.00      0.00      0.00       0  perf_experiment

# Time        UID       PID    %usr %system  %guest   %wait    %CPU   CPU  minflt/s  majflt/s     VSZ     RSS   %MEM   kB_rd/s   kB_wr/s kB_ccwr/s iodelay  Command
08:09:32 PM  1006    217663   98.00    2.00    0.00    0.00  100.00    53   2514.00      0.00  658296  583432   0.22   8590.50      0.00      0.00       0  perf_experiment

# Time        UID       PID    %usr %system  %guest   %wait    %CPU   CPU  minflt/s  majflt/s     VSZ     RSS   %MEM   kB_rd/s   kB_wr/s kB_ccwr/s iodelay  Command
08:09:33 PM  1006    217663   98.00    3.00    0.00    0.00  101.00    53   2477.00      0.00  658296  583432   0.22   8526.00      0.00      0.00       0  perf_experiment

# Time        UID       PID    %usr %system  %guest   %wait    %CPU   CPU  minflt/s  majflt/s     VSZ     RSS   %MEM   kB_rd/s   kB_wr/s kB_ccwr/s iodelay  Command
08:09:34 PM  1006    217663   98.00    2.00    0.00    0.00  100.00    53   2332.00      0.00  658296  583432   0.22   8552.00      0.00      0.00       0  perf_experiment

# Time        UID       PID    %usr %system  %guest   %wait    %CPU   CPU  minflt/s  majflt/s     VSZ     RSS   %MEM   kB_rd/s   kB_wr/s kB_ccwr/s iodelay  Command
08:09:35 PM  1006    217663   98.00    2.00    0.00    0.00  100.00    53   2330.00      0.00  658296  583432   0.22   8594.50      0.00      0.00       0  perf_experiment

# Time        UID       PID    %usr %system  %guest   %wait    %CPU   CPU  minflt/s  majflt/s     VSZ     RSS   %MEM   kB_rd/s   kB_wr/s kB_ccwr/s iodelay  Command
08:09:36 PM  1006    217663   99.00    1.00    0.00    0.00  100.00    53   2166.00      0.00  658296  583432   0.22   8602.00      0.00      0.00       0  perf_experiment

# Time        UID       PID    %usr %system  %guest   %wait    %CPU   CPU  minflt/s  majflt/s     VSZ     RSS   %MEM   kB_rd/s   kB_wr/s kB_ccwr/s iodelay  Command
08:09:37 PM  1006    217663   98.00    1.00    0.00    0.00   99.00    53   2083.00      0.00  658296  583432   0.22   8579.00      0.00      0.00       0  perf_experiment

# Time        UID       PID    %usr %system  %guest   %wait    %CPU   CPU  minflt/s  majflt/s     VSZ     RSS   %MEM   kB_rd/s   kB_wr/s kB_ccwr/s iodelay  Command
08:09:38 PM  1006    217663   99.00    2.00    0.00    0.00  101.00    53   1847.00      0.00  658296  583432   0.22   8604.00      0.00      0.00       0  perf_experiment

# Time        UID       PID    %usr %system  %guest   %wait    %CPU   CPU  minflt/s  majflt/s     VSZ     RSS   %MEM   kB_rd/s   kB_wr/s kB_ccwr/s iodelay  Command
08:09:39 PM  1006    217663   98.00    2.00    0.00    0.00  100.00    53   1924.00      0.00  658296  583432   0.22   8571.00      0.00      0.00       0  perf_experiment

# Time        UID       PID    %usr %system  %guest   %wait    %CPU   CPU  minflt/s  majflt/s     VSZ     RSS   %MEM   kB_rd/s   kB_wr/s kB_ccwr/s iodelay  Command
08:09:40 PM  1006    217663   98.00    1.00    0.00    0.00   99.00    53   1749.00      0.00  658296  583432   0.22   8609.00      0.00      0.00       0  perf_experiment

# Time        UID       PID    %usr %system  %guest   %wait    %CPU   CPU  minflt/s  majflt/s     VSZ     RSS   %MEM   kB_rd/s   kB_wr/s kB_ccwr/s iodelay  Command
08:09:41 PM  1006    217663   98.00    2.00    0.00    0.00  100.00    53   1794.00      0.00  658296  583432   0.22   8605.00      0.00      0.00       0  perf_experiment

# Time        UID       PID    %usr %system  %guest   %wait    %CPU   CPU  minflt/s  majflt/s     VSZ     RSS   %MEM   kB_rd/s   kB_wr/s kB_ccwr/s iodelay  Command
08:09:42 PM  1006    217663   99.00    2.00    0.00    0.00  101.00    53   1596.00      0.00  658296  583432   0.22   8582.00      0.00      0.00       0  perf_experiment

# Time        UID       PID    %usr %system  %guest   %wait    %CPU   CPU  minflt/s  majflt/s     VSZ     RSS   %MEM   kB_rd/s   kB_wr/s kB_ccwr/s iodelay  Command
08:09:43 PM  1006    217663   98.00    1.00    0.00    0.00   99.00    53   1627.00      0.00  658296  583432   0.22   8555.00      0.00      0.00       0  perf_experiment

# Time        UID       PID    %usr %system  %guest   %wait    %CPU   CPU  minflt/s  majflt/s     VSZ     RSS   %MEM   kB_rd/s   kB_wr/s kB_ccwr/s iodelay  Command