5,Faster,1,5000000,2500000,8,32,52138,5000000


resource usage stats

Linux 5.4.0-42-generic (arcon1) 	10/25/2020 	_x86_64_	(64 CPU)

# Time        UID       PID    %usr %system  %guest   %wait    %CPU   CPU  minflt/s  majflt/s     VSZ     RSS   %MEM   kB_rd/s   kB_wr/s kB_ccwr/s iodelay  Command
10:23:39 AM  1006    221026   61.00   37.00    0.00    0.00   98.00    21 146342.00      0.00  665700  590860   0.22      0.00      4.00      0.00       0  perf_experiment

# Time        UID       PID    %usr %system  %guest   %wait    %CPU   CPU  minflt/s  majflt/s     VSZ     RSS   %MEM   kB_rd/s   kB_wr/s kB_ccwr/s iodelay  Command
10:23:40 AM  1006    221026   70.00   31.00    0.00    0.00  101.00    21   6688.00      0.00  676392  601756   0.23      0.00      0.00      0.00       0  perf_experiment

# Time        UID       PID    %usr %system  %guest   %wait    %CPU   CPU  minflt/s  majflt/s     VSZ     RSS   %MEM   kB_rd/s   kB_wr/s kB_ccwr/s iodelay  Command
10:23:41 AM  1006    221026   72.00   28.00    0.00    0.00  100.00    21  13231.00      0.00  686952  612260   0.23      0.00      0.00      0.00       0  perf_experiment

# Time        UID       PID    %usr %system  %guest   %wait    %CPU   CPU  minflt/s  majflt/s     VSZ     RSS   %MEM   kB_rd/s   kB_wr/s kB_ccwr/s iodelay  Command
10:23:42 AM  1006    221026   73.00   27.00    0.00    0.00  100.00    21  13380.00      0.00  697512  622812   0.24      0.00      0.00      0.00       0  perf_experiment

# Time        UID       PID    %usr %system  %guest   %wait    %CPU   CPU  minflt/s  majflt/s     VSZ     RSS   %MEM   kB_rd/s   kB_wr/s kB_ccwr/s iodelay  Command
10:23:43 AM  1006    221026   72.00   28.00    0.00    0.00  100.00    53  12461.00      0.00  707940  633268   0.24      0.00      0.00      0.00       0  perf_experiment

# Time        UID       PID    %usr %system  %guest   %wait    %CPU   CPU  minflt/s  majflt/s     VSZ     RSS   %MEM   kB_rd/s   kB_wr/s kB_ccwr/s iodelay  Command
10:23:44 AM  1006    221026   77.00   23.00    0.00    0.00  100.00    53  14733.00      0.00  718236  643604   0.24      0.00      0.00      0.00       0  perf_experiment

# Time        UID       PID    %usr %system  %guest   %wait    %CPU   CPU  minflt/s  majflt/s     VSZ     RSS   %MEM   kB_rd/s   kB_wr/s kB_ccwr/s iodelay  Command
10:23:45 AM  1006    221026   65.00   35.00    0.00    0.00  100.00    53  11658.00      0.00  728532  653868   0.25      0.00      0.00      0.00       0  perf_experiment

# Time        UID       PID    %usr %system  %guest   %wait    %CPU   CPU  minflt/s  majflt/s     VSZ     RSS   %MEM   kB_rd/s   kB_wr/s kB_ccwr/s iodelay  Command
10:23:46 AM  1006    221026   71.00   28.00    0.00    0.00   99.00    53  11549.00      0.00  738828  664072   0.25      0.00      0.00      0.00       0  perf_experiment

# Time        UID       PID    %usr %system  %guest   %wait    %CPU   CPU  minflt/s  majflt/s     VSZ     RSS   %MEM   kB_rd/s   kB_wr/s kB_ccwr/s iodelay  Command
10:23:47 AM  1006    221026   76.00   25.00    0.00    0.00  101.00    53  15596.00      0.00  748860  674180   0.26      0.00      0.00      0.00       0  perf_experiment

# Time        UID       PID    %usr %system  %guest   %wait    %CPU   CPU  minflt/s  majflt/s     VSZ     RSS   %MEM   kB_rd/s   kB_wr/s kB_ccwr/s iodelay  Command
10:23:48 AM  1006    221026   75.00   22.00    0.00    0.00   97.00    53  19020.00      0.00  758364  683756   0.26      0.00  32768.00      0.00       2  perf_experiment

# Time        UID       PID    %usr %system  %guest   %wait    %CPU   CPU  minflt/s  majflt/s     VSZ     RSS   %MEM   kB_rd/s   kB_wr/s kB_ccwr/s iodelay  Command
10:23:49 AM  1006    221026   77.00   21.00    0.00    0.00   98.00    53  18965.00      0.00  767868  693248   0.26      0.00  32768.00      0.00       2  perf_experiment

# Time        UID       PID    %usr %system  %guest   %wait    %CPU   CPU  minflt/s  majflt/s     VSZ     RSS   %MEM   kB_rd/s   kB_wr/s kB_ccwr/s iodelay  Command
10:23:50 AM  1006    221026   73.00   28.00    0.00    0.00  101.00    53  13687.00      0.00  775132  700628   0.27   2018.00      0.00      0.00       0  perf_experiment

# Time        UID       PID    %usr %system  %guest   %wait    %CPU   CPU  minflt/s  majflt/s     VSZ     RSS   %MEM   kB_rd/s   kB_wr/s kB_ccwr/s iodelay  Command
10:23:51 AM  1006    221026   42.00   58.00    0.00    0.00  100.00    53    530.00      0.00  775656  701120   0.27   8064.00      0.00      0.00       0  perf_experiment

# Time        UID       PID    %usr %system  %guest   %wait    %CPU   CPU  minflt/s  majflt/s     VSZ     RSS   %MEM   kB_rd/s   kB_wr/s kB_ccwr/s iodelay  Command
10:23:52 AM  1006    221026   30.00   67.00    0.00    0.00   97.00    53   8468.00      0.00  776180  701576   0.27   7274.50  32768.00      0.00       2  perf_experiment

# Time        UID       PID    %usr %system  %guest   %wait    %CPU   CPU  minflt/s  majflt/s     VSZ     RSS   %MEM   kB_rd/s   kB_wr/s kB_ccwr/s iodelay  Command
10:23:53 AM  1006    221026   37.00   63.00    0.00    0.00  100.00    53    468.00      0.00  776692  702096   0.27   7098.00      0.00      0.00       0  perf_experiment

# Time        UID       PID    %usr %system  %guest   %wait    %CPU   CPU  minflt/s  majflt/s     VSZ     RSS   %MEM   kB_rd/s   kB_wr/s kB_ccwr/s iodelay  Command
10:23:54 AM  1006    221026   39.00   61.00    0.00    0.00  100.00    53   1043.00      0.00  777064  702548   0.27   7139.00      0.00      0.00       0  perf_experiment

# Time        UID       PID    %usr %system  %guest   %wait    %CPU   CPU  minflt/s  majflt/s     VSZ     RSS   %MEM   kB_rd/s   kB_wr/s kB_ccwr/s iodelay  Command
10:23:55 AM  1006    221026   34.00   66.00    0.00    0.00  100.00    53    467.00      0.00  777588  702976   0.27   7108.00      0.00      0.00       0  perf_experiment

# Time        UID       PID    %usr %system  %guest   %wait    %CPU   CPU  minflt/s  majflt/s     VSZ     RSS   %MEM   kB_rd/s   kB_wr/s kB_ccwr/s iodelay  Command
10:23:56 AM  1006    221026   35.00   66.00    0.00    0.00  101.00    53    484.00      0.00  778104  703500   0.27   7453.00      0.00      0.00       0  perf_experiment

# Time        UID       PID    %usr %system  %guest   %wait    %CPU   CPU  minflt/s  majflt/s     VSZ     RSS   %MEM   kB_rd/s   kB_wr/s kB_ccwr/s iodelay  Command
10:23:57 AM  1006    221026   41.00   58.00    0.00    0.00   99.00    53    510.00      0.00  778496  704000   0.27   7454.00      0.00      0.00       0  perf_experiment

# Time        UID       PID    %usr %system  %guest   %wait    %CPU   CPU  minflt/s  majflt/s     VSZ     RSS   %MEM   kB_rd/s   kB_wr/s kB_ccwr/s iodelay  Command
10:23:58 AM  1006    221026   35.00   65.00    0.00    0.00  100.00    53    467.00      0.00  779012  704464   0.27   7067.00      0.00      0.00       0  perf_experiment

# Time        UID       PID    %usr %system  %guest   %wait    %CPU   CPU  minflt/s  majflt/s     VSZ     RSS   %MEM   kB_rd/s   kB_wr/s kB_ccwr/s iodelay  Command
10:23:59 AM  1006    221026   40.00   60.00    0.00    0.00  100.00    53    473.00      0.00  779532  704912   0.27   7276.50      0.00      0.00       0  perf_experiment

# Time        UID       PID    %usr %system  %guest   %wait    %CPU   CPU  minflt/s  majflt/s     VSZ     RSS   %MEM   kB_rd/s   kB_wr/s kB_ccwr/s iodelay  Command
10:24:00 AM  1006    221026   35.00   66.00    0.00    0.00  101.00    53   1074.00      0.00  779928  705424   0.27   7645.00      0.00      0.00       0  perf_experiment

# Time        UID       PID    %usr %system  %guest   %wait    %CPU   CPU  minflt/s  majflt/s     VSZ     RSS   %MEM   kB_rd/s   kB_wr/s kB_ccwr/s iodelay  Command
10:24:01 AM  1006    221026   39.00   61.00    0.00    0.00  100.00    53    482.00      0.00  780436  705904   0.27   7383.00      0.00      0.00       0  perf_experiment

# Time        UID       PID    %usr %system  %guest   %wait    %CPU   CPU  minflt/s  majflt/s     VSZ     RSS   %MEM   kB_rd/s   kB_wr/s kB_ccwr/s iodelay  Command
10:24:02 AM  1006    221026   39.00   61.00    0.00    0.00  100.00    53    475.00      0.00  780924  706328   0.27   6804.50      0.00      0.00       0  perf_experiment

# Time        UID       PID    %usr %system  %guest   %wait    %CPU   CPU  minflt/s  majflt/s     VSZ     RSS   %MEM   kB_rd/s   kB_wr/s kB_ccwr/s iodelay  Command
10:24:03 AM  1006    221026   35.00   64.00    0.00    0.00   99.00    53    481.00      0.00  781456  706852   0.27   7414.00      0.00      0.00       0  perf_experiment

# Time        UID       PID    %usr %system  %guest   %wait    %CPU   CPU  minflt/s  majflt/s     VSZ     RSS   %MEM   kB_rd/s   kB_wr/s kB_ccwr/s iodelay  Command
10:24:04 AM  1006    221026   38.00   63.00    0.00    0.00  101.00    53   1048.00      0.00  781956  707376   0.27   7853.00      0.00      0.00       0  perf_experiment

# Time        UID       PID    %usr %system  %guest   %wait    %CPU   CPU  minflt/s  majflt/s     VSZ     RSS   %MEM   kB_rd/s   kB_wr/s kB_ccwr/s iodelay  Command
10:24:05 AM  1006    221026   39.00   61.00    0.00    0.00  100.00    53    530.00      0.00  782340  707808   0.27   7276.50      0.00      0.00       0  perf_experiment

# Time        UID       PID    %usr %system  %guest   %wait    %CPU   CPU  minflt/s  majflt/s     VSZ     RSS   %MEM   kB_rd/s   kB_wr/s kB_ccwr/s iodelay  Command
10:24:06 AM  1006    221026   38.00   62.00    0.00    0.00  100.00    53    446.00      0.00  782828  708240   0.27   6741.50      0.00      0.00       0  perf_experiment

# Time        UID       PID    %usr %system  %guest   %wait    %CPU   CPU  minflt/s  majflt/s     VSZ     RSS   %MEM   kB_rd/s   kB_wr/s kB_ccwr/s iodelay  Command
10:24:07 AM  1006    221026   37.00   62.00    0.00    0.00   99.00    53    496.00      0.00  783348  708728   0.27   7244.50      0.00      0.00       0  perf_experiment

# Time        UID       PID    %usr %system  %guest   %wait    %CPU   CPU  minflt/s  majflt/s     VSZ     RSS   %MEM   kB_rd/s   kB_wr/s kB_ccwr/s iodelay  Command
10:24:08 AM  1006    221026   37.00   64.00    0.00    0.00  101.00    53    527.00      0.00  783740  709248   0.27   7508.00      0.00      0.00       0  perf_experiment

# Time        UID       PID    %usr %system  %guest   %wait    %CPU   CPU  minflt/s  majflt/s     VSZ     RSS   %MEM   kB_rd/s   kB_wr/s kB_ccwr/s iodelay  Command
10:24:09 AM  1006    221026   37.00   62.00    0.00    0.00   99.00    53    564.00      0.00  784268  709756   0.27   7527.50      0.00      0.00       0  perf_experiment

# Time        UID       PID    %usr %system  %guest   %wait    %CPU   CPU  minflt/s  majflt/s     VSZ     RSS   %MEM   kB_rd/s   kB_wr/s kB_ccwr/s iodelay  Command
10:24:10 AM  1006    221026   35.00   65.00    0.00    0.00  100.00    53    497.00      0.00  784780  710176   0.27   7222.00      0.00      0.00       0  perf_experiment

# Time        UID       PID    %usr %system  %guest   %wait    %CPU   CPU  minflt/s  majflt/s     VSZ     RSS   %MEM   kB_rd/s   kB_wr/s kB_ccwr/s iodelay  Command
10:24:11 AM  1006    221026   36.00   65.00    0.00    0.00  101.00    53   1240.00      0.00  785284  710640   0.27   7225.50      0.00      0.00       0  perf_experiment

# Time        UID       PID    %usr %system  %guest   %wait    %CPU   CPU  minflt/s  majflt/s     VSZ     RSS   %MEM   kB_rd/s   kB_wr/s kB_ccwr/s iodelay  Command
10:24:12 AM  1006    221026   37.00   63.00    0.00    0.00  100.00    53    530.00      0.00  785676  711120   0.27   7083.50      0.00      0.00       0  perf_experiment

# Time        UID       PID    %usr %system  %guest   %wait    %CPU   CPU  minflt/s  majflt/s     VSZ     RSS   %MEM   kB_rd/s   kB_wr/s kB_ccwr/s iodelay  Command
10:24:13 AM  1006    221026   38.00   61.00    0.00    0.00   99.00    53    496.00      0.00  786204  711600   0.27   7446.00      0.00      0.00       0  perf_experiment

# Time        UID       PID    %usr %system  %guest   %wait    %CPU   CPU  minflt/s  majflt/s     VSZ     RSS   %MEM   kB_rd/s   kB_wr/s kB_ccwr/s iodelay  Command
10:24:14 AM  1006    221026   35.00   66.00    0.00    0.00  101.00    53    532.00      0.00  786724  712080   0.27   7354.50      0.00      0.00       0  perf_experiment

# Time        UID       PID    %usr %system  %guest   %wait    %CPU   CPU  minflt/s  majflt/s     VSZ     RSS   %MEM   kB_rd/s   kB_wr/s kB_ccwr/s iodelay  Command
10:24:15 AM  1006    221026   40.00   57.00    0.00    0.00   97.00    53   8676.00      0.00  787120  712552   0.27   6946.00  32768.00      0.00       3  perf_experiment

# Time        UID       PID    %usr %system  %guest   %wait    %CPU   CPU  minflt/s  majflt/s     VSZ     RSS   %MEM   kB_rd/s   kB_wr/s kB_ccwr/s iodelay  Command
10:24:16 AM  1006    221026   36.00   64.00    0.00    0.00  100.00    53    494.00      0.00  787652  712996   0.27   7389.00      0.00      0.00       0  perf_experiment

# Time        UID       PID    %usr %system  %guest   %wait    %CPU   CPU  minflt/s  majflt/s     VSZ     RSS   %MEM   kB_rd/s   kB_wr/s kB_ccwr/s iodelay  Command
10:24:17 AM  1006    221026   36.00   64.00    0.00    0.00  100.00    53    481.00      0.00  788036  713472   0.27   6981.00      0.00      0.00       0  perf_experiment

# Time        UID       PID    %usr %system  %guest   %wait    %CPU   CPU  minflt/s  majflt/s     VSZ     RSS   %MEM   kB_rd/s   kB_wr/s kB_ccwr/s iodelay  Command
10:24:18 AM  1006    221026   40.00   60.00    0.00    0.00  100.00    53    458.00      0.00  788532  713944   0.27   6943.00      0.00      0.00       0  perf_experiment

# Time        UID       PID    %usr %system  %guest   %wait    %CPU   CPU  minflt/s  majflt/s     VSZ     RSS   %MEM   kB_rd/s   kB_wr/s kB_ccwr/s iodelay  Command
10:24:19 AM  1006    221026   37.00   64.00    0.00    0.00  101.00    53    645.00      0.00  789028  714440   0.27   7203.50      0.00      0.00       0  perf_experiment

# Time        UID       PID    %usr %system  %guest   %wait    %CPU   CPU  minflt/s  majflt/s     VSZ     RSS   %MEM   kB_rd/s   kB_wr/s kB_ccwr/s iodelay  Command
10:24:20 AM  1006    221026   32.00   67.00    0.00    0.00   99.00    53    544.00      0.00  789424  714904   0.27   7509.00      0.00      0.00       0  perf_experiment

# Time        UID       PID    %usr %system  %guest   %wait    %CPU   CPU  minflt/s  majflt/s     VSZ     RSS   %MEM   kB_rd/s   kB_wr/s kB_ccwr/s iodelay  Command
10:24:21 AM  1006    221026   36.00   65.00    0.00    0.00  101.00    53    597.00      0.00  789940  715384   0.27   6980.00      0.00      0.00       0  perf_experiment

# Time        UID       PID    %usr %system  %guest   %wait    %CPU   CPU  minflt/s  majflt/s     VSZ     RSS   %MEM   kB_rd/s   kB_wr/s kB_ccwr/s iodelay  Command
10:24:22 AM  1006    221026   37.00   62.00    0.00    0.00   99.00    53    566.00      0.00  790468  715824   0.27   7204.00      0.00      0.00       0  perf_experiment

# Time        UID       PID    %usr %system  %guest   %wait    %CPU   CPU  minflt/s  majflt/s     VSZ     RSS   %MEM   kB_rd/s   kB_wr/s kB_ccwr/s iodelay  Command
10:24:23 AM  1006    221026   39.00   62.00    0.00    0.00  101.00    53    520.00      0.00  790852  716300   0.27   7225.50      0.00      0.00       0  perf_experiment

# Time        UID       PID    %usr %system  %guest   %wait    %CPU   CPU  minflt/s  majflt/s     VSZ     RSS   %MEM   kB_rd/s   kB_wr/s kB_ccwr/s iodelay  Command
10:24:24 AM  1006    221026   38.00   62.00    0.00    0.00  100.00    53    998.00      0.00  791376  716772   0.27   7423.00      0.00      0.00       0  perf_experiment

# Time        UID       PID    %usr %system  %guest   %wait    %CPU   CPU  minflt/s  majflt/s     VSZ     RSS   %MEM   kB_rd/s   kB_wr/s kB_ccwr/s iodelay  Command
10:24:25 AM  1006    221026   38.00   62.00    0.00    0.00  100.00    53    520.00      0.00  791892  717264   0.27   7089.50      0.00      0.00       0  perf_experiment

# Time        UID       PID    %usr %system  %guest   %wait    %CPU   CPU  minflt/s  majflt/s     VSZ     RSS   %MEM   kB_rd/s   kB_wr/s kB_ccwr/s iodelay  Command
10:24:26 AM  1006    221026   36.00   63.00    0.00    0.00   99.00    53    464.00      0.00  792244  717708   0.27   6998.00      0.00      0.00       0  perf_experiment

# Time        UID       PID    %usr %system  %guest   %wait    %CPU   CPU  minflt/s  majflt/s     VSZ     RSS   %MEM   kB_rd/s   kB_wr/s kB_ccwr/s iodelay  Command
10:24:27 AM  1006    221026   37.00   63.00    0.00    0.00  100.00    53    532.00      0.00  792776  718212   0.27   7475.00      0.00      0.00       0  perf_experiment

# Time        UID       PID    %usr %system  %guest   %wait    %CPU   CPU  minflt/s  majflt/s     VSZ     RSS   %MEM   kB_rd/s   kB_wr/s kB_ccwr/s iodelay  Command
10:24:28 AM  1006    221026   37.00   64.00    0.00    0.00  101.00    53    531.00      0.00  793280  718728   0.27   7566.50      0.00      0.00       0  perf_experiment

# Time        UID       PID    %usr %system  %guest   %wait    %CPU   CPU  minflt/s  majflt/s     VSZ     RSS   %MEM   kB_rd/s   kB_wr/s kB_ccwr/s iodelay  Command
10:24:29 AM  1006    221026   36.00   63.00    0.00    0.00   99.00    53    490.00      0.00  793776  719184   0.27   6934.50      0.00      0.00       0  perf_experiment

# Time        UID       PID    %usr %system  %guest   %wait    %CPU   CPU  minflt/s  majflt/s     VSZ     RSS   %MEM   kB_rd/s   kB_wr/s kB_ccwr/s iodelay  Command
10:24:30 AM  1006    221026   35.00   65.00    0.00    0.00  100.00    53    458.00      0.00  794148  719628   0.27   7030.50      0.00      0.00       0  perf_experiment

# Time        UID       PID    %usr %system  %guest   %wait    %CPU   CPU  minflt/s  majflt/s     VSZ     RSS   %MEM   kB_rd/s   kB_wr/s kB_ccwr/s iodelay  Command
10:24:31 AM  1006    221026   39.00   61.00    0.00    0.00  100.00    53    509.00      0.00  794648  720060   0.27   7099.00      0.00      0.00       0  perf_experiment

# Time        UID       PID    %usr %system  %guest   %wait    %CPU   CPU  minflt/s  majflt/s     VSZ     RSS   %MEM   kB_rd/s   kB_wr/s kB_ccwr/s iodelay  Command
10:24:32 AM  1006    221026   40.00   60.00    0.00    0.00  100.00    53    494.00      0.00  795152  720548   0.27   7088.00      0.00      0.00       0  perf_experiment

# Time        UID       PID    %usr %system  %guest   %wait    %CPU   CPU  minflt/s  majflt/s     VSZ     RSS   %MEM   kB_rd/s   kB_wr/s kB_ccwr/s iodelay  Command
10:24:33 AM  1006    221026   46.00   55.00    0.00    0.00  101.00    53    500.00      0.00  795544  721016   0.27   7589.50      0.00      0.00       0  perf_experiment

# Time        UID       PID    %usr %system  %guest   %wait    %CPU   CPU  minflt/s  majflt/s     VSZ     RSS   %MEM   kB_rd/s   kB_wr/s kB_ccwr/s iodelay  Command
10:24:34 AM  1006    221026   33.00   66.00    0.00    0.00   99.00    53    649.00      0.00  796064  721540   0.27   7567.50      0.00      0.00       0  perf_experiment

# Time        UID       PID    %usr %system  %guest   %wait    %CPU   CPU  minflt/s  majflt/s     VSZ     RSS   %MEM   kB_rd/s   kB_wr/s kB_ccwr/s iodelay  Command
10:24:35 AM  1006    221026   37.00   63.00    0.00    0.00  100.00    53    771.00      0.00  796560  721996   0.27   7317.00      0.00      0.00       0  perf_experiment

# Time        UID       PID    %usr %system  %guest   %wait    %CPU   CPU  minflt/s  majflt/s     VSZ     RSS   %MEM   kB_rd/s   kB_wr/s kB_ccwr/s iodelay  Command
10:24:36 AM  1006    221026   43.00   57.00    0.00    0.00  100.00    53    646.00      0.00  797076  722432   0.27   6949.50      0.00      0.00       0  perf_experiment

# Time        UID       PID    %usr %system  %guest   %wait    %CPU   CPU  minflt/s  majflt/s     VSZ     RSS   %MEM   kB_rd/s   kB_wr/s kB_ccwr/s iodelay  Command
10:24:37 AM  1006    221026   42.00   58.00    0.00    0.00  100.00    53    485.00      0.00  797460  722916   0.27   6914.50      0.00      0.00       0  perf_experiment

# Time        UID       PID    %usr %system  %guest   %wait    %CPU   CPU  minflt/s  majflt/s     VSZ     RSS   %MEM   kB_rd/s   kB_wr/s kB_ccwr/s iodelay  Command
10:24:38 AM  1006    221026   33.00   65.00    0.00    0.00   98.00    53   8700.00      0.00  797976  723388   0.27   6768.50  32768.00      0.00       2  perf_experiment

# Time        UID       PID    %usr %system  %guest   %wait    %CPU   CPU  minflt/s  majflt/s     VSZ     RSS   %MEM   kB_rd/s   kB_wr/s kB_ccwr/s iodelay  Command
10:24:39 AM  1006    221026   36.00   64.00    0.00    0.00  100.00    53    628.00      0.00  798468  723864   0.27   7403.00      0.00      0.00       0  perf_experiment

# Time        UID       PID    %usr %system  %guest   %wait    %CPU   CPU  minflt/s  majflt/s     VSZ     RSS   %MEM   kB_rd/s   kB_wr/s kB_ccwr/s iodelay  Command
10:24:40 AM  1006    221026   38.00   62.00    0.00    0.00  100.00    53    737.00      0.00  798856  724340   0.27   7188.00      0.00      0.00       0  perf_experiment

# Time        UID       PID    %usr %system  %guest   %wait    %CPU   CPU  minflt/s  majflt/s     VSZ     RSS   %MEM   kB_rd/s   kB_wr/s kB_ccwr/s iodelay  Command
10:24:41 AM  1006    221026   45.00   55.00    0.00    0.00  100.00    53    752.00      0.00  799396  724744   0.27   6976.00      0.00      0.00       0  perf_experiment

# Time        UID       PID    %usr %system  %guest   %wait    %CPU   CPU  minflt/s  majflt/s     VSZ     RSS   %MEM   kB_rd/s   kB_wr/s kB_ccwr/s iodelay  Command
10:24:42 AM  1006    221026   33.00   67.00    0.00    0.00  100.00    53    495.00      0.00  799788  725244   0.27   7183.00      0.00      0.00       0  perf_experiment

# Time        UID       PID    %usr %system  %guest   %wait    %CPU   CPU  minflt/s  majflt/s     VSZ     RSS   %MEM   kB_rd/s   kB_wr/s kB_ccwr/s iodelay  Command
10:24:43 AM  1006    221026   39.00   61.00    0.00    0.00  100.00    53    532.00      0.00  800296  725700   0.28   7337.50      0.00      0.00       0  perf_experiment

# Time        UID       PID    %usr %system  %guest   %wait    %CPU   CPU  minflt/s  majflt/s     VSZ     RSS   %MEM   kB_rd/s   kB_wr/s kB_ccwr/s iodelay  Command
10:24:44 AM  1006    221026   37.00   63.00    0.00    0.00  100.00    53    490.00      0.00  800812  726204   0.28   7289.00      0.00      0.00       0  perf_experiment

# Time        UID       PID    %usr %system  %guest   %wait    %CPU   CPU  minflt/s  majflt/s     VSZ     RSS   %MEM   kB_rd/s   kB_wr/s kB_ccwr/s iodelay  Command
10:24:45 AM  1006    221026   40.00   60.00    0.00    0.00  100.00    53    457.00      0.00  801196  726656   0.28   6895.00      0.00      0.00       0  perf_experiment

# Time        UID       PID    %usr %system  %guest   %wait    %CPU   CPU  minflt/s  majflt/s     VSZ     RSS   %MEM   kB_rd/s   kB_wr/s kB_ccwr/s iodelay  Command
10:24:46 AM  1006    221026   36.00   64.00    0.00    0.00  100.00    53    468.00      0.00  801712  727108   0.28   7009.50      0.00      0.00       0  perf_experiment

# Time        UID       PID    %usr %system  %guest   %wait    %CPU   CPU  minflt/s  majflt/s     VSZ     RSS   %MEM   kB_rd/s   kB_wr/s kB_ccwr/s iodelay  Command
10:24:47 AM  1006    221026   33.00   67.00    0.00    0.00  100.00    53    545.00      0.00  802240  727552   0.28   7280.00      0.00      0.00       0  perf_experiment

# Time        UID       PID    %usr %system  %guest   %wait    %CPU   CPU  minflt/s  majflt/s     VSZ     RSS   %MEM   kB_rd/s   kB_wr/s kB_ccwr/s iodelay  Command
10:24:48 AM  1006    221026   42.00   58.00    0.00    0.00  100.00    53    496.00      0.00  802632  728092   0.28   7413.50      0.00      0.00       0  perf_experiment

# Time        UID       PID    %usr %system  %guest   %wait    %CPU   CPU  minflt/s  majflt/s     VSZ     RSS   %MEM   kB_rd/s   kB_wr/s kB_ccwr/s iodelay  Command
10:24:49 AM  1006    221026   34.00   66.00    0.00    0.00  100.00    53    461.00      0.00  803164  728544   0.28   6961.50      0.00      0.00       0  perf_experiment

# Time        UID       PID    %usr %system  %guest   %wait    %CPU   CPU  minflt/s  majflt/s     VSZ     RSS   %MEM   kB_rd/s   kB_wr/s kB_ccwr/s iodelay  Command
10:24:50 AM  1006    221026   35.00   65.00    0.00    0.00  100.00    53    465.00      0.00  803560  728992   0.28   7044.50      0.00      0.00       0  perf_experiment

# Time        UID       PID    %usr %system  %guest   %wait    %CPU   CPU  minflt/s  majflt/s     VSZ     RSS   %MEM   kB_rd/s   kB_wr/s kB_ccwr/s iodelay  Command
10:24:51 AM  1006    221026   32.00   68.00    0.00    0.00  100.00    53    483.00      0.00  804064  729472   0.28   7101.50      0.00      0.00       0  perf_experiment

# Time        UID       PID    %usr %system  %guest   %wait    %CPU   CPU  minflt/s  majflt/s     VSZ     RSS   %MEM   kB_rd/s   kB_wr/s kB_ccwr/s iodelay  Command
10:24:52 AM  1006    221026   34.00   67.00    0.00    0.00  101.00    53    498.00      0.00  804548  729944   0.28   7248.50      0.00      0.00       0  perf_experiment

# Time        UID       PID    %usr %system  %guest   %wait    %CPU   CPU  minflt/s  majflt/s     VSZ     RSS   %MEM   kB_rd/s   kB_wr/s kB_ccwr/s iodelay  Command
10:24:53 AM  1006    221026   42.00   57.00    0.00    0.00   99.00    53    500.00      0.00  804928  730404   0.28   7509.50      0.00      0.00       0  perf_experiment

# Time        UID       PID    %usr %system  %guest   %wait    %CPU   CPU  minflt/s  majflt/s     VSZ     RSS   %MEM   kB_rd/s   kB_wr/s kB_ccwr/s iodelay  Command
10:24:54 AM  1006    221026   39.00   61.00    0.00    0.00  100.00    53    696.00      0.00  805460  730924   0.28   7454.00      0.00      0.00       0  perf_experiment

# Time        UID       PID    %usr %system  %guest   %wait    %CPU   CPU  minflt/s  majflt/s     VSZ     RSS   %MEM   kB_rd/s   kB_wr/s kB_ccwr/s iodelay  Command
10:24:55 AM  1006    221026   37.00   64.00    0.00    0.00  101.00    53    948.00      0.00  805972  731392   0.28   6828.50      0.00      0.00       0  perf_experiment

# Time        UID       PID    %usr %system  %guest   %wait    %CPU   CPU  minflt/s  majflt/s     VSZ     RSS   %MEM   kB_rd/s   kB_wr/s kB_ccwr/s iodelay  Command
10:24:56 AM  1006    221026   37.00   62.00    0.00    0.00   99.00    53    709.00      0.00  806352  731808   0.28   7069.50      0.00      0.00       0  perf_experiment

# Time        UID       PID    %usr %system  %guest   %wait    %CPU   CPU  minflt/s  majflt/s     VSZ     RSS   %MEM   kB_rd/s   kB_wr/s kB_ccwr/s iodelay  Command
10:24:57 AM  1006    221026   37.00   63.00    0.00    0.00  100.00    53    512.00      0.00  806860  732312   0.28   7498.50      0.00      0.00       0  perf_experiment

# Time        UID       PID    %usr %system  %guest   %wait    %CPU   CPU  minflt/s  majflt/s     VSZ     RSS   %MEM   kB_rd/s   kB_wr/s kB_ccwr/s iodelay  Command
10:24:58 AM  1006    221026   42.00   58.00    0.00    0.00  100.00    53    663.00      0.00  807372  732768   0.28   7273.00      0.00      0.00       0  perf_experiment

# Time        UID       PID    %usr %system  %guest   %wait    %CPU   CPU  minflt/s  majflt/s     VSZ     RSS   %MEM   kB_rd/s   kB_wr/s kB_ccwr/s iodelay  Command
10:24:59 AM  1006    221026   39.00   61.00    0.00    0.00  100.00    53    623.00      0.00  807880  733280   0.28   7257.50      0.00      0.00       0  perf_experiment

# Time        UID       PID    %usr %system  %guest   %wait    %CPU   CPU  minflt/s  majflt/s     VSZ     RSS   %MEM   kB_rd/s   kB_wr/s kB_ccwr/s iodelay  Command
10:25:00 AM  1006    221026   41.00   60.00    0.00    0.00  101.00    53    507.00      0.00  808272  733744   0.28   7184.50      0.00      0.00       0  perf_experiment

# Time        UID       PID    %usr %system  %guest   %wait    %CPU   CPU  minflt/s  majflt/s     VSZ     RSS   %MEM   kB_rd/s   kB_wr/s kB_ccwr/s iodelay  Command
10:25:01 AM  1006    221026   35.00   64.00    0.00    0.00   99.00    53    479.00      0.00  808812  734164   0.28   6755.00      0.00      0.00       0  perf_experiment

# Time        UID       PID    %usr %system  %guest   %wait    %CPU   CPU  minflt/s  majflt/s     VSZ     RSS   %MEM   kB_rd/s   kB_wr/s kB_ccwr/s iodelay  Command
10:25:02 AM  1006    221026   31.00   67.00    0.00    0.00   98.00    53   9199.00      0.00  809184  734652   0.28   6979.50  32768.00      0.00       2  perf_experiment

# Time        UID       PID    %usr %system  %guest   %wait    %CPU   CPU  minflt/s  majflt/s     VSZ     RSS   %MEM   kB_rd/s   kB_wr/s kB_ccwr/s iodelay  Command
10:25:03 AM  1006    221026   36.00   64.00    0.00    0.00  100.00    53    538.00      0.00  809688  735144   0.28   7552.00      0.00      0.00       0  perf_experiment

# Time        UID       PID    %usr %system  %guest   %wait    %CPU   CPU  minflt/s  majflt/s     VSZ     RSS   %MEM   kB_rd/s   kB_wr/s kB_ccwr/s iodelay  Command
10:25:04 AM  1006    221026   35.00   65.00    0.00    0.00  100.00    53    514.00      0.00  810196  735592   0.28   7225.00      0.00      0.00       0  perf_experiment

# Time        UID       PID    %usr %system  %guest   %wait    %CPU   CPU  minflt/s  majflt/s     VSZ     RSS   %MEM   kB_rd/s   kB_wr/s kB_ccwr/s iodelay  Command
10:25:05 AM  1006    221026   38.00   62.00    0.00    0.00  100.00    53    448.00      0.00  810580  736000   0.28   6645.50      0.00      0.00       0  perf_experiment

# Time        UID       PID    %usr %system  %guest   %wait    %CPU   CPU  minflt/s  majflt/s     VSZ     RSS   %MEM   kB_rd/s   kB_wr/s kB_ccwr/s iodelay  Command
10:25:06 AM  1006    221026   37.00   63.00    0.00    0.00  100.00    53    502.00      0.00  811080  736484   0.28   7224.00      0.00      0.00       0  perf_experiment

# Time        UID       PID    %usr %system  %guest   %wait    %CPU   CPU  minflt/s  majflt/s     VSZ     RSS   %MEM   kB_rd/s   kB_wr/s kB_ccwr/s iodelay  Command