1,Faster,3,5000000,2500000,8,32,54199,5000000


resource usage stats

Linux 5.4.0-42-generic (arcon1) 	10/24/2020 	_x86_64_	(64 CPU)

# Time        UID       PID    %usr %system  %guest   %wait    %CPU   CPU  minflt/s  majflt/s     VSZ     RSS   %MEM   kB_rd/s   kB_wr/s kB_ccwr/s iodelay  Command
06:00:39 PM  1006    217110   78.00   21.00    0.00    0.00   99.00    51 144433.00      0.00  590180  582760   0.22      0.00      4.00      0.00       0  perf_experiment

# Time        UID       PID    %usr %system  %guest   %wait    %CPU   CPU  minflt/s  majflt/s     VSZ     RSS   %MEM   kB_rd/s   kB_wr/s kB_ccwr/s iodelay  Command
06:00:40 PM  1006    217110   94.00    1.00    0.00    0.00   95.00    51      4.00      0.00  590180  582760   0.22      0.00  65536.00      0.00       4  perf_experiment

# Time        UID       PID    %usr %system  %guest   %wait    %CPU   CPU  minflt/s  majflt/s     VSZ     RSS   %MEM   kB_rd/s   kB_wr/s kB_ccwr/s iodelay  Command
06:00:41 PM  1006    217110   89.00    3.00    0.00    0.00   92.00    51      2.00      0.00  590180  582760   0.22      0.00 131072.00      0.00       8  perf_experiment

# Time        UID       PID    %usr %system  %guest   %wait    %CPU   CPU  minflt/s  majflt/s     VSZ     RSS   %MEM   kB_rd/s   kB_wr/s kB_ccwr/s iodelay  Command
06:00:42 PM  1006    217110   90.00    1.00    0.00    0.00   91.00    51      0.00      0.00  590180  582760   0.22      0.00  98304.00      0.00       9  perf_experiment

# Time        UID       PID    %usr %system  %guest   %wait    %CPU   CPU  minflt/s  majflt/s     VSZ     RSS   %MEM   kB_rd/s   kB_wr/s kB_ccwr/s iodelay  Command
06:00:43 PM  1006    217110   92.00    1.00    0.00    0.00   93.00    51      1.00      0.00  590180  582760   0.22      0.00  98304.00      0.00       7  perf_experiment

# Time        UID       PID    %usr %system  %guest   %wait    %CPU   CPU  minflt/s  majflt/s     VSZ     RSS   %MEM   kB_rd/s   kB_wr/s kB_ccwr/s iodelay  Command
06:00:44 PM  1006    217110   99.00    2.00    0.00    0.00  101.00    51     83.00      0.00  658184  583412   0.22   6221.50      0.00      0.00       0  perf_experiment

# Time        UID       PID    %usr %system  %guest   %wait    %CPU   CPU  minflt/s  majflt/s     VSZ     RSS   %MEM   kB_rd/s   kB_wr/s kB_ccwr/s iodelay  Command
06:00:45 PM  1006    217110   96.00    3.00    0.00    0.00   99.00    51  12370.00      0.00  658444  583736   0.22   7267.50      0.00      0.00       0  perf_experiment

# Time        UID       PID    %usr %system  %guest   %wait    %CPU   CPU  minflt/s  majflt/s     VSZ     RSS   %MEM   kB_rd/s   kB_wr/s kB_ccwr/s iodelay  Command
06:00:46 PM  1006    217110   97.00    3.00    0.00    0.00  100.00    51   3172.00      0.00  658712  584040   0.22   7330.00      0.00      0.00       0  perf_experiment

# Time        UID       PID    %usr %system  %guest   %wait    %CPU   CPU  minflt/s  majflt/s     VSZ     RSS   %MEM   kB_rd/s   kB_wr/s kB_ccwr/s iodelay  Command
06:00:47 PM  1006    217110   96.00    4.00    0.00    0.00  100.00    51   7627.00      0.00  658972  584296   0.22   7273.50      0.00      0.00       0  perf_experiment

# Time        UID       PID    %usr %system  %guest   %wait    %CPU   CPU  minflt/s  majflt/s     VSZ     RSS   %MEM   kB_rd/s   kB_wr/s kB_ccwr/s iodelay  Command
06:00:48 PM  1006    217110   99.00    1.00    0.00    0.00  100.00    51   6831.00      0.00  659236  584564   0.22   7323.50      0.00      0.00       0  perf_experiment

# Time        UID       PID    %usr %system  %guest   %wait    %CPU   CPU  minflt/s  majflt/s     VSZ     RSS   %MEM   kB_rd/s   kB_wr/s kB_ccwr/s iodelay  Command
06:00:49 PM  1006    217110   94.06    4.95    0.00    0.00   99.01    51   6112.87      0.00  659504  584880   0.22   7267.33      0.00      0.00       0  perf_experiment

# Time        UID       PID    %usr %system  %guest   %wait    %CPU   CPU  minflt/s  majflt/s     VSZ     RSS   %MEM   kB_rd/s   kB_wr/s kB_ccwr/s iodelay  Command
06:00:50 PM  1006    217110   96.00    4.00    0.00    0.00  100.00    51  17096.00      0.00  659776  585168   0.22   7234.00      0.00      0.00       0  perf_experiment

# Time        UID       PID    %usr %system  %guest   %wait    %CPU   CPU  minflt/s  majflt/s     VSZ     RSS   %MEM   kB_rd/s   kB_wr/s kB_ccwr/s iodelay  Command
06:00:51 PM  1006    217110   97.00    3.00    0.00    0.00  100.00    51   6169.00      0.00  660044  585436   0.22   7375.00      0.00      0.00       0  perf_experiment

# Time        UID       PID    %usr %system  %guest   %wait    %CPU   CPU  minflt/s  majflt/s     VSZ     RSS   %MEM   kB_rd/s   kB_wr/s kB_ccwr/s iodelay  Command
06:00:52 PM  1006    217110   99.00    1.00    0.00    0.00  100.00    51   7031.00      0.00  660312  585704   0.22   7329.50      0.00      0.00       0  perf_experiment

# Time        UID       PID    %usr %system  %guest   %wait    %CPU   CPU  minflt/s  majflt/s     VSZ     RSS   %MEM   kB_rd/s   kB_wr/s kB_ccwr/s iodelay  Command
06:00:53 PM  1006    217110   97.00    3.00    0.00    0.00  100.00    51   6893.00      0.00  660696  586016   0.22   7274.00      0.00      0.00       0  perf_experiment

# Time        UID       PID    %usr %system  %guest   %wait    %CPU   CPU  minflt/s  majflt/s     VSZ     RSS   %MEM   kB_rd/s   kB_wr/s kB_ccwr/s iodelay  Command
06:00:54 PM  1006    217110   97.00    3.00    0.00    0.00  100.00    51   6303.00      0.00  660944  586304   0.22   7383.00      0.00      0.00       0  perf_experiment

# Time        UID       PID    %usr %system  %guest   %wait    %CPU   CPU  minflt/s  majflt/s     VSZ     RSS   %MEM   kB_rd/s   kB_wr/s kB_ccwr/s iodelay  Command
06:00:55 PM  1006    217110   96.00    4.00    0.00    0.00  100.00    51   5537.00      0.00  661208  586560   0.22   7403.00      0.00      0.00       0  perf_experiment

# Time        UID       PID    %usr %system  %guest   %wait    %CPU   CPU  minflt/s  majflt/s     VSZ     RSS   %MEM   kB_rd/s   kB_wr/s kB_ccwr/s iodelay  Command
06:00:56 PM  1006    217110   96.00    4.00    0.00    0.00  100.00    51  16077.00      0.00  661612  586892   0.22   7347.00      0.00      0.00       0  perf_experiment

# Time        UID       PID    %usr %system  %guest   %wait    %CPU   CPU  minflt/s  majflt/s     VSZ     RSS   %MEM   kB_rd/s   kB_wr/s kB_ccwr/s iodelay  Command
06:00:57 PM  1006    217110   96.00    4.00    0.00    0.00  100.00    51   6489.00      0.00  661864  587168   0.22   7423.50      0.00      0.00       0  perf_experiment

# Time        UID       PID    %usr %system  %guest   %wait    %CPU   CPU  minflt/s  majflt/s     VSZ     RSS   %MEM   kB_rd/s   kB_wr/s kB_ccwr/s iodelay  Command
06:00:58 PM  1006    217110   96.00    4.00    0.00    0.00  100.00    51   5359.00      0.00  662128  587460   0.22   7410.50      0.00      0.00       0  perf_experiment

# Time        UID       PID    %usr %system  %guest   %wait    %CPU   CPU  minflt/s  majflt/s     VSZ     RSS   %MEM   kB_rd/s   kB_wr/s kB_ccwr/s iodelay  Command
06:00:59 PM  1006    217110   96.00    4.00    0.00    0.00  100.00    51   7023.00      0.00  662392  587752   0.22   7366.50      0.00      0.00       0  perf_experiment

# Time        UID       PID    %usr %system  %guest   %wait    %CPU   CPU  minflt/s  majflt/s     VSZ     RSS   %MEM   kB_rd/s   kB_wr/s kB_ccwr/s iodelay  Command
06:01:00 PM  1006    217110   95.00    5.00    0.00    0.00  100.00    51   6648.00      0.00  662652  588040   0.22   7425.50      0.00      0.00       0  perf_experiment

# Time        UID       PID    %usr %system  %guest   %wait    %CPU   CPU  minflt/s  majflt/s     VSZ     RSS   %MEM   kB_rd/s   kB_wr/s kB_ccwr/s iodelay  Command
06:01:01 PM  1006    217110   96.00    4.00    0.00    0.00  100.00    51   6106.00      0.00  663044  588316   0.22   7403.50      0.00      0.00       0  perf_experiment

# Time        UID       PID    %usr %system  %guest   %wait    %CPU   CPU  minflt/s  majflt/s     VSZ     RSS   %MEM   kB_rd/s   kB_wr/s kB_ccwr/s iodelay  Command
06:01:02 PM  1006    217110   96.00    4.00    0.00    0.00  100.00    51   5587.00      0.00  663300  588596   0.22   7417.50      0.00      0.00       0  perf_experiment

# Time        UID       PID    %usr %system  %guest   %wait    %CPU   CPU  minflt/s  majflt/s     VSZ     RSS   %MEM   kB_rd/s   kB_wr/s kB_ccwr/s iodelay  Command
06:01:03 PM  1006    217110   97.00    3.00    0.00    0.00  100.00    51   4815.00      0.00  663564  588892   0.22   7407.50      0.00      0.00       0  perf_experiment

# Time        UID       PID    %usr %system  %guest   %wait    %CPU   CPU  minflt/s  majflt/s     VSZ     RSS   %MEM   kB_rd/s   kB_wr/s kB_ccwr/s iodelay  Command
06:01:04 PM  1006    217110   96.00    4.00    0.00    0.00  100.00    51  12729.00      0.00  663836  589208   0.22   7364.50      0.00      0.00       0  perf_experiment

# Time        UID       PID    %usr %system  %guest   %wait    %CPU   CPU  minflt/s  majflt/s     VSZ     RSS   %MEM   kB_rd/s   kB_wr/s kB_ccwr/s iodelay  Command
06:01:05 PM  1006    217110   97.00    3.00    0.00    0.00  100.00    51   8441.00      0.00  664108  589452   0.22   7381.00      0.00      0.00       0  perf_experiment

# Time        UID       PID    %usr %system  %guest   %wait    %CPU   CPU  minflt/s  majflt/s     VSZ     RSS   %MEM   kB_rd/s   kB_wr/s kB_ccwr/s iodelay  Command
06:01:06 PM  1006    217110   96.00    4.00    0.00    0.00  100.00    51   5086.00      0.00  664372  589756   0.22   7392.00      0.00      0.00       0  perf_experiment

# Time        UID       PID    %usr %system  %guest   %wait    %CPU   CPU  minflt/s  majflt/s     VSZ     RSS   %MEM   kB_rd/s   kB_wr/s kB_ccwr/s iodelay  Command
06:01:07 PM  1006    217110   98.00    2.00    0.00    0.00  100.00    51   4479.00      0.00  664764  590052   0.22   7399.50      0.00      0.00       0  perf_experiment

# Time        UID       PID    %usr %system  %guest   %wait    %CPU   CPU  minflt/s  majflt/s     VSZ     RSS   %MEM   kB_rd/s   kB_wr/s kB_ccwr/s iodelay  Command
06:01:08 PM  1006    217110   96.00    4.00    0.00    0.00  100.00    51   6950.00      0.00  665036  590352   0.22   7399.00      0.00      0.00       0  perf_experiment

# Time        UID       PID    %usr %system  %guest   %wait    %CPU   CPU  minflt/s  majflt/s     VSZ     RSS   %MEM   kB_rd/s   kB_wr/s kB_ccwr/s iodelay  Command
06:01:09 PM  1006    217110   97.00    3.00    0.00    0.00  100.00    51   6549.00      0.00  665300  590632   0.22   7383.00      0.00      0.00       0  perf_experiment

# Time        UID       PID    %usr %system  %guest   %wait    %CPU   CPU  minflt/s  majflt/s     VSZ     RSS   %MEM   kB_rd/s   kB_wr/s kB_ccwr/s iodelay  Command
06:01:10 PM  1006    217110   96.00    4.00    0.00    0.00  100.00    51   5889.00      0.00  665568  590912   0.22   7410.50      0.00      0.00       0  perf_experiment

# Time        UID       PID    %usr %system  %guest   %wait    %CPU   CPU  minflt/s  majflt/s     VSZ     RSS   %MEM   kB_rd/s   kB_wr/s kB_ccwr/s iodelay  Command
06:01:11 PM  1006    217110   95.00    4.00    0.00    0.00   99.00    51   5482.00      0.00  665840  591200   0.22   7382.50      0.00      0.00       0  perf_experiment

# Time        UID       PID    %usr %system  %guest   %wait    %CPU   CPU  minflt/s  majflt/s     VSZ     RSS   %MEM   kB_rd/s   kB_wr/s kB_ccwr/s iodelay  Command
06:01:12 PM  1006    217110   99.00    2.00    0.00    0.00  101.00    51   4807.00      0.00  666100  591468   0.22   7393.50      0.00      0.00       0  perf_experiment

# Time        UID       PID    %usr %system  %guest   %wait    %CPU   CPU  minflt/s  majflt/s     VSZ     RSS   %MEM   kB_rd/s   kB_wr/s kB_ccwr/s iodelay  Command
06:01:13 PM  1006    217110   95.00    5.00    0.00    0.00  100.00    51   4201.00      0.00  666508  591788   0.22   7448.00      0.00      0.00       0  perf_experiment

# Time        UID       PID    %usr %system  %guest   %wait    %CPU   CPU  minflt/s  majflt/s     VSZ     RSS   %MEM   kB_rd/s   kB_wr/s kB_ccwr/s iodelay  Command
06:01:14 PM  1006    217110   96.00    4.00    0.00    0.00  100.00    51   3893.00      0.00  666768  592076   0.22   7387.00      0.00      0.00       0  perf_experiment

# Time        UID       PID    %usr %system  %guest   %wait    %CPU   CPU  minflt/s  majflt/s     VSZ     RSS   %MEM   kB_rd/s   kB_wr/s kB_ccwr/s iodelay  Command
06:01:15 PM  1006    217110   96.00    3.00    0.00    0.00   99.00    51  14984.00      0.00  667040  592376   0.22   7331.50      0.00      0.00       0  perf_experiment

# Time        UID       PID    %usr %system  %guest   %wait    %CPU   CPU  minflt/s  majflt/s     VSZ     RSS   %MEM   kB_rd/s   kB_wr/s kB_ccwr/s iodelay  Command
06:01:16 PM  1006    217110   99.00    2.00    0.00    0.00  101.00    51   5189.00      0.00  667312  592640   0.22   7414.00      0.00      0.00       0  perf_experiment

# Time        UID       PID    %usr %system  %guest   %wait    %CPU   CPU  minflt/s  majflt/s     VSZ     RSS   %MEM   kB_rd/s   kB_wr/s kB_ccwr/s iodelay  Command
06:01:17 PM  1006    217110   97.00    3.00    0.00    0.00  100.00    51   4445.00      0.00  667584  592960   0.22   7386.50      0.00      0.00       0  perf_experiment

# Time        UID       PID    %usr %system  %guest   %wait    %CPU   CPU  minflt/s  majflt/s     VSZ     RSS   %MEM   kB_rd/s   kB_wr/s kB_ccwr/s iodelay  Command
06:01:18 PM  1006    217110   98.00    2.00    0.00    0.00  100.00    51   3962.00      0.00  667964  593248   0.22   7423.50      0.00      0.00       0  perf_experiment

# Time        UID       PID    %usr %system  %guest   %wait    %CPU   CPU  minflt/s  majflt/s     VSZ     RSS   %MEM   kB_rd/s   kB_wr/s kB_ccwr/s iodelay  Command
06:01:19 PM  1006    217110   96.00    3.00    0.00    0.00   99.00    51   4433.00      0.00  668092  593484   0.22   7397.00      0.00      0.00       0  perf_experiment

# Time        UID       PID    %usr %system  %guest   %wait    %CPU   CPU  minflt/s  majflt/s     VSZ     RSS   %MEM   kB_rd/s   kB_wr/s kB_ccwr/s iodelay  Command
06:01:20 PM  1006    217110   97.00    4.00    0.00    0.00  101.00    51   7081.00      0.00  668480  593796   0.23   7382.50      0.00      0.00       0  perf_experiment

# Time        UID       PID    %usr %system  %guest   %wait    %CPU   CPU  minflt/s  majflt/s     VSZ     RSS   %MEM   kB_rd/s   kB_wr/s kB_ccwr/s iodelay  Command
06:01:21 PM  1006    217110   97.00    3.00    0.00    0.00  100.00    51   5981.00      0.00  668744  594088   0.23   7433.00      0.00      0.00       0  perf_experiment

# Time        UID       PID    %usr %system  %guest   %wait    %CPU   CPU  minflt/s  majflt/s     VSZ     RSS   %MEM   kB_rd/s   kB_wr/s kB_ccwr/s iodelay  Command
06:01:22 PM  1006    217110   98.00    2.00    0.00    0.00  100.00    51   5666.00      0.00  669016  594388   0.23   7408.50      0.00      0.00       0  perf_experiment

# Time        UID       PID    %usr %system  %guest   %wait    %CPU   CPU  minflt/s  majflt/s     VSZ     RSS   %MEM   kB_rd/s   kB_wr/s kB_ccwr/s iodelay  Command
06:01:23 PM  1006    217110   97.00    3.00    0.00    0.00  100.00    51   4909.00      0.00  669284  594636   0.23   7452.50      0.00      0.00       0  perf_experiment

# Time        UID       PID    %usr %system  %guest   %wait    %CPU   CPU  minflt/s  majflt/s     VSZ     RSS   %MEM   kB_rd/s   kB_wr/s kB_ccwr/s iodelay  Command
06:01:24 PM  1006    217110   98.00    2.00    0.00    0.00  100.00    51   4441.00      0.00  669556  594948   0.23   7389.00      0.00      0.00       0  perf_experiment

# Time        UID       PID    %usr %system  %guest   %wait    %CPU   CPU  minflt/s  majflt/s     VSZ     RSS   %MEM   kB_rd/s   kB_wr/s kB_ccwr/s iodelay  Command
06:01:25 PM  1006    217110   96.00    4.00    0.00    0.00  100.00    51   4068.00      0.00  669952  595224   0.23   7403.00      0.00      0.00       0  perf_experiment

# Time        UID       PID    %usr %system  %guest   %wait    %CPU   CPU  minflt/s  majflt/s     VSZ     RSS   %MEM   kB_rd/s   kB_wr/s kB_ccwr/s iodelay  Command
06:01:26 PM  1006    217110   97.00    3.00    0.00    0.00  100.00    51   3652.00      0.00  670220  595548   0.23   7443.00      0.00      0.00       0  perf_experiment

# Time        UID       PID    %usr %system  %guest   %wait    %CPU   CPU  minflt/s  majflt/s     VSZ     RSS   %MEM   kB_rd/s   kB_wr/s kB_ccwr/s iodelay  Command
06:01:27 PM  1006    217110   98.00    2.00    0.00    0.00  100.00    51   3369.00      0.00  670488  595820   0.23   7414.50      0.00      0.00       0  perf_experiment

# Time        UID       PID    %usr %system  %guest   %wait    %CPU   CPU  minflt/s  majflt/s     VSZ     RSS   %MEM   kB_rd/s   kB_wr/s kB_ccwr/s iodelay  Command
06:01:28 PM  1006    217110   96.00    4.00    0.00    0.00  100.00    51   2960.00      0.00  670748  596092   0.23   7469.00      0.00      0.00       0  perf_experiment

# Time        UID       PID    %usr %system  %guest   %wait    %CPU   CPU  minflt/s  majflt/s     VSZ     RSS   %MEM   kB_rd/s   kB_wr/s kB_ccwr/s iodelay  Command
06:01:29 PM  1006    217110   95.00    5.00    0.00    0.00  100.00    51  14645.00      0.00  671012  596400   0.23   7342.50      0.00      0.00       0  perf_experiment

# Time        UID       PID    %usr %system  %guest   %wait    %CPU   CPU  minflt/s  majflt/s     VSZ     RSS   %MEM   kB_rd/s   kB_wr/s kB_ccwr/s iodelay  Command
06:01:30 PM  1006    217110   97.00    3.00    0.00    0.00  100.00    51   4460.00      0.00  671280  596668   0.23   7443.50      0.00      0.00       0  perf_experiment

# Time        UID       PID    %usr %system  %guest   %wait    %CPU   CPU  minflt/s  majflt/s     VSZ     RSS   %MEM   kB_rd/s   kB_wr/s kB_ccwr/s iodelay  Command
06:01:31 PM  1006    217110   97.00    3.00    0.00    0.00  100.00    51   3909.00      0.00  671676  596956   0.23   7442.50      0.00      0.00       0  perf_experiment

# Time        UID       PID    %usr %system  %guest   %wait    %CPU   CPU  minflt/s  majflt/s     VSZ     RSS   %MEM   kB_rd/s   kB_wr/s kB_ccwr/s iodelay  Command
06:01:32 PM  1006    217110   97.00    3.00    0.00    0.00  100.00    51   3357.00      0.00  671940  597276   0.23   7464.00      0.00      0.00       0  perf_experiment

# Time        UID       PID    %usr %system  %guest   %wait    %CPU   CPU  minflt/s  majflt/s     VSZ     RSS   %MEM   kB_rd/s   kB_wr/s kB_ccwr/s iodelay  Command
06:01:33 PM  1006    217110   97.00    3.00    0.00    0.00  100.00    51   3031.00      0.00  672200  597540   0.23   7436.00      0.00      0.00       0  perf_experiment

# Time        UID       PID    %usr %system  %guest   %wait    %CPU   CPU  minflt/s  majflt/s     VSZ     RSS   %MEM   kB_rd/s   kB_wr/s kB_ccwr/s iodelay  Command
06:01:34 PM  1006    217110   95.00    5.00    0.00    0.00  100.00    51   3315.00      0.00  672468  597844   0.23   7365.50      0.00      0.00       0  perf_experiment

# Time        UID       PID    %usr %system  %guest   %wait    %CPU   CPU  minflt/s  majflt/s     VSZ     RSS   %MEM   kB_rd/s   kB_wr/s kB_ccwr/s iodelay  Command
06:01:35 PM  1006    217110   97.00    3.00    0.00    0.00  100.00    51   6735.00      0.00  672740  598108   0.23   7401.00      0.00      0.00       0  perf_experiment

# Time        UID       PID    %usr %system  %guest   %wait    %CPU   CPU  minflt/s  majflt/s     VSZ     RSS   %MEM   kB_rd/s   kB_wr/s kB_ccwr/s iodelay  Command
06:01:36 PM  1006    217110   97.00    3.00    0.00    0.00  100.00    51   6219.00      0.00  673124  598404   0.23   7399.50      0.00      0.00       0  perf_experiment

# Time        UID       PID    %usr %system  %guest   %wait    %CPU   CPU  minflt/s  majflt/s     VSZ     RSS   %MEM   kB_rd/s   kB_wr/s kB_ccwr/s iodelay  Command
06:01:37 PM  1006    217110   95.00    5.00    0.00    0.00  100.00    51   5584.00      0.00  673396  598744   0.23   7401.00      0.00      0.00       0  perf_experiment

# Time        UID       PID    %usr %system  %guest   %wait    %CPU   CPU  minflt/s  majflt/s     VSZ     RSS   %MEM   kB_rd/s   kB_wr/s kB_ccwr/s iodelay  Command
06:01:38 PM  1006    217110   97.00    3.00    0.00    0.00  100.00    51   4903.00      0.00  673660  599004   0.23   7397.00      0.00      0.00       0  perf_experiment

# Time        UID       PID    %usr %system  %guest   %wait    %CPU   CPU  minflt/s  majflt/s     VSZ     RSS   %MEM   kB_rd/s   kB_wr/s kB_ccwr/s iodelay  Command
06:01:39 PM  1006    217110   96.00    4.00    0.00    0.00  100.00    51   4426.00      0.00  673932  599280   0.23   7411.00      0.00      0.00       0  perf_experiment

# Time        UID       PID    %usr %system  %guest   %wait    %CPU   CPU  minflt/s  majflt/s     VSZ     RSS   %MEM   kB_rd/s   kB_wr/s kB_ccwr/s iodelay  Command
06:01:40 PM  1006    217110   97.00    3.00    0.00    0.00  100.00    51   4021.00      0.00  674200  599568   0.23   7430.50      0.00      0.00       0  perf_experiment

# Time        UID       PID    %usr %system  %guest   %wait    %CPU   CPU  minflt/s  majflt/s     VSZ     RSS   %MEM   kB_rd/s   kB_wr/s kB_ccwr/s iodelay  Command
06:01:41 PM  1006    217110   99.00    1.00    0.00    0.00  100.00    51   3589.00      0.00  674468  599828   0.23   7398.50      0.00      0.00       0  perf_experiment

# Time        UID       PID    %usr %system  %guest   %wait    %CPU   CPU  minflt/s  majflt/s     VSZ     RSS   %MEM   kB_rd/s   kB_wr/s kB_ccwr/s iodelay  Command
06:01:42 PM  1006    217110   97.00    3.00    0.00    0.00  100.00    51   3336.00      0.00  674852  600140   0.23   7422.50      0.00      0.00       0  perf_experiment

# Time        UID       PID    %usr %system  %guest   %wait    %CPU   CPU  minflt/s  majflt/s     VSZ     RSS   %MEM   kB_rd/s   kB_wr/s kB_ccwr/s iodelay  Command
06:01:43 PM  1006    217110   97.00    3.00    0.00    0.00  100.00    51   2965.00      0.00  675116  600428   0.23   7366.00      0.00      0.00       0  perf_experiment

# Time        UID       PID    %usr %system  %guest   %wait    %CPU   CPU  minflt/s  majflt/s     VSZ     RSS   %MEM   kB_rd/s   kB_wr/s kB_ccwr/s iodelay  Command
06:01:44 PM  1006    217110   95.00    5.00    0.00    0.00  100.00    51   2665.00      0.00  675388  600756   0.23   7463.00      0.00      0.00       0  perf_experiment

# Time        UID       PID    %usr %system  %guest   %wait    %CPU   CPU  minflt/s  majflt/s     VSZ     RSS   %MEM   kB_rd/s   kB_wr/s kB_ccwr/s iodelay  Command
06:01:45 PM  1006    217110   97.00    3.00    0.00    0.00  100.00    51   2311.00      0.00  675768  601052   0.23   7442.00      0.00      0.00       0  perf_experiment

# Time        UID       PID    %usr %system  %guest   %wait    %CPU   CPU  minflt/s  majflt/s     VSZ     RSS   %MEM   kB_rd/s   kB_wr/s kB_ccwr/s iodelay  Command
06:01:46 PM  1006    217110   97.00    3.00    0.00    0.00  100.00    51   2073.00      0.00  675900  601280   0.23   7454.50      0.00      0.00       0  perf_experiment

# Time        UID       PID    %usr %system  %guest   %wait    %CPU   CPU  minflt/s  majflt/s     VSZ     RSS   %MEM   kB_rd/s   kB_wr/s kB_ccwr/s iodelay  Command
06:01:47 PM  1006    217110   97.00    2.00    0.00    0.00   99.00    51  13832.00      0.00  676292  601604   0.23   7324.00      0.00      0.00       0  perf_experiment

# Time        UID       PID    %usr %system  %guest   %wait    %CPU   CPU  minflt/s  majflt/s     VSZ     RSS   %MEM   kB_rd/s   kB_wr/s kB_ccwr/s iodelay  Command
06:01:48 PM  1006    217110   96.00    5.00    0.00    0.00  101.00    51   3977.00      0.00  676556  601896   0.23   7385.00      0.00      0.00       0  perf_experiment

# Time        UID       PID    %usr %system  %guest   %wait    %CPU   CPU  minflt/s  majflt/s     VSZ     RSS   %MEM   kB_rd/s   kB_wr/s kB_ccwr/s iodelay  Command
06:01:49 PM  1006    217110   98.00    2.00    0.00    0.00  100.00    51   3414.00      0.00  676828  602180   0.23   7416.50      0.00      0.00       0  perf_experiment

# Time        UID       PID    %usr %system  %guest   %wait    %CPU   CPU  minflt/s  majflt/s     VSZ     RSS   %MEM   kB_rd/s   kB_wr/s kB_ccwr/s iodelay  Command
06:01:50 PM  1006    217110   96.00    4.00    0.00    0.00  100.00    51   3044.00      0.00  677096  602480   0.23   7408.50      0.00      0.00       0  perf_experiment

# Time        UID       PID    %usr %system  %guest   %wait    %CPU   CPU  minflt/s  majflt/s     VSZ     RSS   %MEM   kB_rd/s   kB_wr/s kB_ccwr/s iodelay  Command
06:01:51 PM  1006    217110   96.00    4.00    0.00    0.00  100.00    51   2564.00      0.00  677368  602744   0.23   7380.50      0.00      0.00       0  perf_experiment

# Time        UID       PID    %usr %system  %guest   %wait    %CPU   CPU  minflt/s  majflt/s     VSZ     RSS   %MEM   kB_rd/s   kB_wr/s kB_ccwr/s iodelay  Command
06:01:52 PM  1006    217110   96.00    3.00    0.00    0.00   99.00    51   2396.00      0.00  677748  603044   0.23   7421.00      0.00      0.00       0  perf_experiment

# Time        UID       PID    %usr %system  %guest   %wait    %CPU   CPU  minflt/s  majflt/s     VSZ     RSS   %MEM   kB_rd/s   kB_wr/s kB_ccwr/s iodelay  Command
06:01:53 PM  1006    217110   98.00    3.00    0.00    0.00  101.00    51   2087.00      0.00  678012  603320   0.23   7418.00      0.00      0.00       0  perf_experiment

# Time        UID       PID    %usr %system  %guest   %wait    %CPU   CPU  minflt/s  majflt/s     VSZ     RSS   %MEM   kB_rd/s   kB_wr/s kB_ccwr/s iodelay  Command
06:01:54 PM  1006    217110   99.00    1.00    0.00    0.00  100.00    51   4119.00      0.00  678280  603620   0.23   7381.50      0.00      0.00       0  perf_experiment

# Time        UID       PID    %usr %system  %guest   %wait    %CPU   CPU  minflt/s  majflt/s     VSZ     RSS   %MEM   kB_rd/s   kB_wr/s kB_ccwr/s iodelay  Command
06:01:55 PM  1006    217110   97.00    3.00    0.00    0.00  100.00    51   6491.00      0.00  678540  603896   0.23   7405.00      0.00      0.00       0  perf_experiment

# Time        UID       PID    %usr %system  %guest   %wait    %CPU   CPU  minflt/s  majflt/s     VSZ     RSS   %MEM   kB_rd/s   kB_wr/s kB_ccwr/s iodelay  Command
06:01:56 PM  1006    217110   96.00    3.00    0.00    0.00   99.00    51   5858.00      0.00  678804  604196   0.23   7446.00      0.00      0.00       0  perf_experiment

# Time        UID       PID    %usr %system  %guest   %wait    %CPU   CPU  minflt/s  majflt/s     VSZ     RSS   %MEM   kB_rd/s   kB_wr/s kB_ccwr/s iodelay  Command
06:01:57 PM  1006    217110   98.00    3.00    0.00    0.00  101.00    51   5195.00      0.00  679184  604488   0.23   7429.00      0.00      0.00       0  perf_experiment

# Time        UID       PID    %usr %system  %guest   %wait    %CPU   CPU  minflt/s  majflt/s     VSZ     RSS   %MEM   kB_rd/s   kB_wr/s kB_ccwr/s iodelay  Command
06:01:58 PM  1006    217110   96.00    4.00    0.00    0.00  100.00    51   4688.00      0.00  679452  604756   0.23   7468.00      0.00      0.00       0  perf_experiment

# Time        UID       PID    %usr %system  %guest   %wait    %CPU   CPU  minflt/s  majflt/s     VSZ     RSS   %MEM   kB_rd/s   kB_wr/s kB_ccwr/s iodelay  Command
06:01:59 PM  1006    217110   99.00    1.00    0.00    0.00  100.00    51   4253.00      0.00  679716  605060   0.23   7426.50      0.00      0.00       0  perf_experiment

# Time        UID       PID    %usr %system  %guest   %wait    %CPU   CPU  minflt/s  majflt/s     VSZ     RSS   %MEM   kB_rd/s   kB_wr/s kB_ccwr/s iodelay  Command
06:02:00 PM  1006    217110   97.00    2.00    0.00    0.00   99.00    51   3732.00      0.00  680112  605384   0.23   7416.50      0.00      0.00       0  perf_experiment

# Time        UID       PID    %usr %system  %guest   %wait    %CPU   CPU  minflt/s  majflt/s     VSZ     RSS   %MEM   kB_rd/s   kB_wr/s kB_ccwr/s iodelay  Command
06:02:01 PM  1006    217110   95.00    6.00    0.00    0.00  101.00    51   3344.00      0.00  680368  605640   0.23   7426.00      0.00      0.00       0  perf_experiment

# Time        UID       PID    %usr %system  %guest   %wait    %CPU   CPU  minflt/s  majflt/s     VSZ     RSS   %MEM   kB_rd/s   kB_wr/s kB_ccwr/s iodelay  Command
06:02:02 PM  1006    217110   96.00    4.00    0.00    0.00  100.00    51   3162.00      0.00  680636  605940   0.23   7406.00      0.00      0.00       0  perf_experiment

# Time        UID       PID    %usr %system  %guest   %wait    %CPU   CPU  minflt/s  majflt/s     VSZ     RSS   %MEM   kB_rd/s   kB_wr/s kB_ccwr/s iodelay  Command
06:02:03 PM  1006    217110   97.00    2.00    0.00    0.00   99.00    51   2711.00      0.00  680900  606228   0.23   7419.00      0.00      0.00       0  perf_experiment

# Time        UID       PID    %usr %system  %guest   %wait    %CPU   CPU  minflt/s  majflt/s     VSZ     RSS   %MEM   kB_rd/s   kB_wr/s kB_ccwr/s iodelay  Command
06:02:04 PM  1006    217110   96.00    5.00    0.00    0.00  101.00    51   2471.00      0.00  681164  606552   0.23   7433.50      0.00      0.00       0  perf_experiment

# Time        UID       PID    %usr %system  %guest   %wait    %CPU   CPU  minflt/s  majflt/s     VSZ     RSS   %MEM   kB_rd/s   kB_wr/s kB_ccwr/s iodelay  Command
06:02:05 PM  1006    217110   98.00    3.00    0.00    0.00  101.00    51   2222.00      0.00  681432  606800   0.23   7457.00      0.00      0.00       0  perf_experiment

# Time        UID       PID    %usr %system  %guest   %wait    %CPU   CPU  minflt/s  majflt/s     VSZ     RSS   %MEM   kB_rd/s   kB_wr/s kB_ccwr/s iodelay  Command
06:02:06 PM  1006    217110   96.00    3.00    0.00    0.00   99.00    51   1987.00      0.00  681700  607084   0.23   7419.50      0.00      0.00       0  perf_experiment

# Time        UID       PID    %usr %system  %guest   %wait    %CPU   CPU  minflt/s  majflt/s     VSZ     RSS   %MEM   kB_rd/s   kB_wr/s kB_ccwr/s iodelay  Command