1,Faster,1,5000000,2500000,32,128,94071,5000000


resource usage stats

Linux 5.4.0-42-generic (arcon1) 	10/24/2020 	_x86_64_	(64 CPU)

# Time        UID       PID    %usr %system  %guest   %wait    %CPU   CPU  minflt/s  majflt/s     VSZ     RSS   %MEM   kB_rd/s   kB_wr/s kB_ccwr/s iodelay  Command
06:59:14 PM  1006    217504   79.00   20.00    0.00    0.00   99.00    20 144432.00      0.00  590180  582612   0.22      0.00      4.00      0.00       0  perf_experiment

# Time        UID       PID    %usr %system  %guest   %wait    %CPU   CPU  minflt/s  majflt/s     VSZ     RSS   %MEM   kB_rd/s   kB_wr/s kB_ccwr/s iodelay  Command
06:59:15 PM  1006    217504   88.00    0.00    0.00    0.00   88.00    20      2.00      0.00  590180  582612   0.22      0.00 163840.00      0.00      11  perf_experiment

# Time        UID       PID    %usr %system  %guest   %wait    %CPU   CPU  minflt/s  majflt/s     VSZ     RSS   %MEM   kB_rd/s   kB_wr/s kB_ccwr/s iodelay  Command
06:59:16 PM  1006    217504   85.00    2.00    0.00    0.00   87.00    20      1.00      0.00  590180  582612   0.22      0.00 163840.00      0.00      13  perf_experiment

# Time        UID       PID    %usr %system  %guest   %wait    %CPU   CPU  minflt/s  majflt/s     VSZ     RSS   %MEM   kB_rd/s   kB_wr/s kB_ccwr/s iodelay  Command
06:59:17 PM  1006    217504   84.00    2.00    0.00    0.00   86.00    20      2.00      0.00  590180  582612   0.22      0.00 196608.00      0.00      14  perf_experiment

# Time        UID       PID    %usr %system  %guest   %wait    %CPU   CPU  minflt/s  majflt/s     VSZ     RSS   %MEM   kB_rd/s   kB_wr/s kB_ccwr/s iodelay  Command
06:59:18 PM  1006    217504   89.00    1.00    0.00    0.00   90.00    20      1.00      0.00  590180  582612   0.22      0.00 131072.00      0.00      10  perf_experiment

# Time        UID       PID    %usr %system  %guest   %wait    %CPU   CPU  minflt/s  majflt/s     VSZ     RSS   %MEM   kB_rd/s   kB_wr/s kB_ccwr/s iodelay  Command
06:59:19 PM  1006    217504   87.00    1.00    0.00    0.00   88.00    20      1.00      0.00  590180  582612   0.22      0.00 163840.00      0.00      12  perf_experiment

# Time        UID       PID    %usr %system  %guest   %wait    %CPU   CPU  minflt/s  majflt/s     VSZ     RSS   %MEM   kB_rd/s   kB_wr/s kB_ccwr/s iodelay  Command
06:59:20 PM  1006    217504   89.00    2.00    0.00    0.00   91.00    20      0.00      0.00  590180  582612   0.22      0.00 131072.00      0.00      10  perf_experiment

# Time        UID       PID    %usr %system  %guest   %wait    %CPU   CPU  minflt/s  majflt/s     VSZ     RSS   %MEM   kB_rd/s   kB_wr/s kB_ccwr/s iodelay  Command
06:59:21 PM  1006    217504   96.00    1.00    0.00    0.00   97.00    20    115.00      0.00  658300  583420   0.22   6149.00  32768.00      0.00       2  perf_experiment

# Time        UID       PID    %usr %system  %guest   %wait    %CPU   CPU  minflt/s  majflt/s     VSZ     RSS   %MEM   kB_rd/s   kB_wr/s kB_ccwr/s iodelay  Command
06:59:22 PM  1006    217504   95.00    5.00    0.00    0.00  100.00    20   7066.00      0.00  658692  584052   0.22   8091.00      0.00      0.00       0  perf_experiment

# Time        UID       PID    %usr %system  %guest   %wait    %CPU   CPU  minflt/s  majflt/s     VSZ     RSS   %MEM   kB_rd/s   kB_wr/s kB_ccwr/s iodelay  Command
06:59:23 PM  1006    217504   96.00    4.00    0.00    0.00  100.00    20   4476.00      0.00  659208  584504   0.22   8126.50      0.00      0.00       0  perf_experiment

# Time        UID       PID    %usr %system  %guest   %wait    %CPU   CPU  minflt/s  majflt/s     VSZ     RSS   %MEM   kB_rd/s   kB_wr/s kB_ccwr/s iodelay  Command
06:59:24 PM  1006    217504   95.00    6.00    0.00    0.00  101.00    20   1667.00      0.00  659732  585032   0.22   8104.00      0.00      0.00       0  perf_experiment

# Time        UID       PID    %usr %system  %guest   %wait    %CPU   CPU  minflt/s  majflt/s     VSZ     RSS   %MEM   kB_rd/s   kB_wr/s kB_ccwr/s iodelay  Command
06:59:25 PM  1006    217504   96.00    3.00    0.00    0.00   99.00    20   3054.00      0.00  660256  585508   0.22   8130.50      0.00      0.00       0  perf_experiment

# Time        UID       PID    %usr %system  %guest   %wait    %CPU   CPU  minflt/s  majflt/s     VSZ     RSS   %MEM   kB_rd/s   kB_wr/s kB_ccwr/s iodelay  Command
06:59:26 PM  1006    217504   96.00    4.00    0.00    0.00  100.00    20   2918.00      0.00  660652  586008   0.22   8115.00      0.00      0.00       0  perf_experiment

# Time        UID       PID    %usr %system  %guest   %wait    %CPU   CPU  minflt/s  majflt/s     VSZ     RSS   %MEM   kB_rd/s   kB_wr/s kB_ccwr/s iodelay  Command
06:59:27 PM  1006    217504   95.00    5.00    0.00    0.00  100.00    20   2759.00      0.00  661184  586480   0.22   8110.00      0.00      0.00       0  perf_experiment

# Time        UID       PID    %usr %system  %guest   %wait    %CPU   CPU  minflt/s  majflt/s     VSZ     RSS   %MEM   kB_rd/s   kB_wr/s kB_ccwr/s iodelay  Command
06:59:28 PM  1006    217504   97.00    4.00    0.00    0.00  101.00    20   2720.00      0.00  661716  586968   0.22   8111.00      0.00      0.00       0  perf_experiment

# Time        UID       PID    %usr %system  %guest   %wait    %CPU   CPU  minflt/s  majflt/s     VSZ     RSS   %MEM   kB_rd/s   kB_wr/s kB_ccwr/s iodelay  Command
06:59:29 PM  1006    217504   96.00    3.00    0.00    0.00   99.00    20  12774.00      0.00  662244  587496   0.22   8041.50      0.00      0.00       0  perf_experiment

# Time        UID       PID    %usr %system  %guest   %wait    %CPU   CPU  minflt/s  majflt/s     VSZ     RSS   %MEM   kB_rd/s   kB_wr/s kB_ccwr/s iodelay  Command
06:59:30 PM  1006    217504   96.00    4.00    0.00    0.00  100.00    20   2945.00      0.00  662628  587968   0.22   8131.00      0.00      0.00       0  perf_experiment

# Time        UID       PID    %usr %system  %guest   %wait    %CPU   CPU  minflt/s  majflt/s     VSZ     RSS   %MEM   kB_rd/s   kB_wr/s kB_ccwr/s iodelay  Command
06:59:31 PM  1006    217504   96.00    4.00    0.00    0.00  100.00    20   2822.00      0.00  663156  588500   0.22   8178.50      0.00      0.00       0  perf_experiment

# Time        UID       PID    %usr %system  %guest   %wait    %CPU   CPU  minflt/s  majflt/s     VSZ     RSS   %MEM   kB_rd/s   kB_wr/s kB_ccwr/s iodelay  Command
06:59:32 PM  1006    217504   96.00    4.00    0.00    0.00  100.00    20   3118.00      0.00  663684  588968   0.22   8145.00      0.00      0.00       0  perf_experiment

# Time        UID       PID    %usr %system  %guest   %wait    %CPU   CPU  minflt/s  majflt/s     VSZ     RSS   %MEM   kB_rd/s   kB_wr/s kB_ccwr/s iodelay  Command
06:59:33 PM  1006    217504   96.00    5.00    0.00    0.00  101.00    20   2952.00      0.00  664212  589472   0.22   8187.00      0.00      0.00       0  perf_experiment

# Time        UID       PID    %usr %system  %guest   %wait    %CPU   CPU  minflt/s  majflt/s     VSZ     RSS   %MEM   kB_rd/s   kB_wr/s kB_ccwr/s iodelay  Command
06:59:34 PM  1006    217504   96.00    3.00    0.00    0.00   99.00    20   2788.00      0.00  664608  589968   0.22   8212.50      0.00      0.00       0  perf_experiment

# Time        UID       PID    %usr %system  %guest   %wait    %CPU   CPU  minflt/s  majflt/s     VSZ     RSS   %MEM   kB_rd/s   kB_wr/s kB_ccwr/s iodelay  Command
06:59:35 PM  1006    217504   98.00    2.00    0.00    0.00  100.00    20   2635.00      0.00  665136  590500   0.22   8183.00      0.00      0.00       0  perf_experiment

# Time        UID       PID    %usr %system  %guest   %wait    %CPU   CPU  minflt/s  majflt/s     VSZ     RSS   %MEM   kB_rd/s   kB_wr/s kB_ccwr/s iodelay  Command
06:59:36 PM  1006    217504   98.00    3.00    0.00    0.00  101.00    20   2672.00      0.00  665668  590952   0.22   8209.50      0.00      0.00       0  perf_experiment

# Time        UID       PID    %usr %system  %guest   %wait    %CPU   CPU  minflt/s  majflt/s     VSZ     RSS   %MEM   kB_rd/s   kB_wr/s kB_ccwr/s iodelay  Command
06:59:37 PM  1006    217504   91.00    9.00    0.00    0.00  100.00    20  12371.00      0.00  666212  591472   0.22   8137.00      0.00      0.00       0  perf_experiment

# Time        UID       PID    %usr %system  %guest   %wait    %CPU   CPU  minflt/s  majflt/s     VSZ     RSS   %MEM   kB_rd/s   kB_wr/s kB_ccwr/s iodelay  Command
06:59:38 PM  1006    217504   95.00    4.00    0.00    0.00   99.00    20   3157.00      0.00  666604  591964   0.22   8190.50      0.00      0.00       0  perf_experiment

# Time        UID       PID    %usr %system  %guest   %wait    %CPU   CPU  minflt/s  majflt/s     VSZ     RSS   %MEM   kB_rd/s   kB_wr/s kB_ccwr/s iodelay  Command
06:59:39 PM  1006    217504   97.00    3.00    0.00    0.00  100.00    20   2739.00      0.00  667128  592492   0.22   8223.00      0.00      0.00       0  perf_experiment

# Time        UID       PID    %usr %system  %guest   %wait    %CPU   CPU  minflt/s  majflt/s     VSZ     RSS   %MEM   kB_rd/s   kB_wr/s kB_ccwr/s iodelay  Command
06:59:40 PM  1006    217504   95.00    5.00    0.00    0.00  100.00    20   2738.00      0.00  667660  592968   0.22   8186.00      0.00      0.00       0  perf_experiment

# Time        UID       PID    %usr %system  %guest   %wait    %CPU   CPU  minflt/s  majflt/s     VSZ     RSS   %MEM   kB_rd/s   kB_wr/s kB_ccwr/s iodelay  Command
06:59:41 PM  1006    217504   97.00    3.00    0.00    0.00  100.00    20   2992.00      0.00  668188  593464   0.22   8186.50      0.00      0.00       0  perf_experiment

# Time        UID       PID    %usr %system  %guest   %wait    %CPU   CPU  minflt/s  majflt/s     VSZ     RSS   %MEM   kB_rd/s   kB_wr/s kB_ccwr/s iodelay  Command
06:59:42 PM  1006    217504   98.00    3.00    0.00    0.00  101.00    20   2798.00      0.00  668592  593956   0.23   8195.50      0.00      0.00       0  perf_experiment

# Time        UID       PID    %usr %system  %guest   %wait    %CPU   CPU  minflt/s  majflt/s     VSZ     RSS   %MEM   kB_rd/s   kB_wr/s kB_ccwr/s iodelay  Command
06:59:43 PM  1006    217504   97.00    3.00    0.00    0.00  100.00    20   2789.00      0.00  669124  594484   0.23   8221.00      0.00      0.00       0  perf_experiment

# Time        UID       PID    %usr %system  %guest   %wait    %CPU   CPU  minflt/s  majflt/s     VSZ     RSS   %MEM   kB_rd/s   kB_wr/s kB_ccwr/s iodelay  Command
06:59:44 PM  1006    217504   95.00    4.00    0.00    0.00   99.00    20   2670.00      0.00  669664  594972   0.23   8211.50      0.00      0.00       0  perf_experiment

# Time        UID       PID    %usr %system  %guest   %wait    %CPU   CPU  minflt/s  majflt/s     VSZ     RSS   %MEM   kB_rd/s   kB_wr/s kB_ccwr/s iodelay  Command
06:59:45 PM  1006    217504   95.00    5.00    0.00    0.00  100.00    20   2517.00      0.00  670200  595452   0.23   8203.50      0.00      0.00       0  perf_experiment

# Time        UID       PID    %usr %system  %guest   %wait    %CPU   CPU  minflt/s  majflt/s     VSZ     RSS   %MEM   kB_rd/s   kB_wr/s kB_ccwr/s iodelay  Command
06:59:46 PM  1006    217504   97.00    3.00    0.00    0.00  100.00    20   2486.00      0.00  670596  595940   0.23   8206.50      0.00      0.00       0  perf_experiment

# Time        UID       PID    %usr %system  %guest   %wait    %CPU   CPU  minflt/s  majflt/s     VSZ     RSS   %MEM   kB_rd/s   kB_wr/s kB_ccwr/s iodelay  Command
06:59:47 PM  1006    217504   99.00    2.00    0.00    0.00  101.00    20   2374.00      0.00  671128  596476   0.23   8205.00      0.00      0.00       0  perf_experiment

# Time        UID       PID    %usr %system  %guest   %wait    %CPU   CPU  minflt/s  majflt/s     VSZ     RSS   %MEM   kB_rd/s   kB_wr/s kB_ccwr/s iodelay  Command
06:59:48 PM  1006    217504   96.00    4.00    0.00    0.00  100.00    20  12710.00      0.00  671660  596960   0.23   8115.50      0.00      0.00       0  perf_experiment

# Time        UID       PID    %usr %system  %guest   %wait    %CPU   CPU  minflt/s  majflt/s     VSZ     RSS   %MEM   kB_rd/s   kB_wr/s kB_ccwr/s iodelay  Command
06:59:49 PM  1006    217504   97.00    2.00    0.00    0.00   99.00    20   2782.00      0.00  672196  597492   0.23   8171.00      0.00      0.00       0  perf_experiment

# Time        UID       PID    %usr %system  %guest   %wait    %CPU   CPU  minflt/s  majflt/s     VSZ     RSS   %MEM   kB_rd/s   kB_wr/s kB_ccwr/s iodelay  Command
06:59:50 PM  1006    217504   94.00    6.00    0.00    0.00  100.00    20   2511.00      0.00  672600  597924   0.23   8234.50      0.00      0.00       0  perf_experiment

# Time        UID       PID    %usr %system  %guest   %wait    %CPU   CPU  minflt/s  majflt/s     VSZ     RSS   %MEM   kB_rd/s   kB_wr/s kB_ccwr/s iodelay  Command
06:59:51 PM  1006    217504   95.00    6.00    0.00    0.00  101.00    20   2341.00      0.00  673132  598436   0.23   8192.50      0.00      0.00       0  perf_experiment

# Time        UID       PID    %usr %system  %guest   %wait    %CPU   CPU  minflt/s  majflt/s     VSZ     RSS   %MEM   kB_rd/s   kB_wr/s kB_ccwr/s iodelay  Command
06:59:52 PM  1006    217504   94.00    5.00    0.00    0.00   99.00    20   2846.00      0.00  673656  598940   0.23   8193.00      0.00      0.00       0  perf_experiment

# Time        UID       PID    %usr %system  %guest   %wait    %CPU   CPU  minflt/s  majflt/s     VSZ     RSS   %MEM   kB_rd/s   kB_wr/s kB_ccwr/s iodelay  Command
06:59:53 PM  1006    217504   95.00    5.00    0.00    0.00  100.00    20   2906.00      0.00  674180  599440   0.23   8179.00      0.00      0.00       0  perf_experiment

# Time        UID       PID    %usr %system  %guest   %wait    %CPU   CPU  minflt/s  majflt/s     VSZ     RSS   %MEM   kB_rd/s   kB_wr/s kB_ccwr/s iodelay  Command
06:59:54 PM  1006    217504   96.00    4.00    0.00    0.00  100.00    20   2851.00      0.00  674720  599968   0.23   8203.50      0.00      0.00       0  perf_experiment

# Time        UID       PID    %usr %system  %guest   %wait    %CPU   CPU  minflt/s  majflt/s     VSZ     RSS   %MEM   kB_rd/s   kB_wr/s kB_ccwr/s iodelay  Command
06:59:55 PM  1006    217504   97.00    3.00    0.00    0.00  100.00    20   2641.00      0.00  675112  600416   0.23   8222.50      0.00      0.00       0  perf_experiment

# Time        UID       PID    %usr %system  %guest   %wait    %CPU   CPU  minflt/s  majflt/s     VSZ     RSS   %MEM   kB_rd/s   kB_wr/s kB_ccwr/s iodelay  Command
06:59:56 PM  1006    217504   95.00    5.00    0.00    0.00  100.00    20   2679.00      0.00  675652  600948   0.23   8166.50      0.00      0.00       0  perf_experiment

# Time        UID       PID    %usr %system  %guest   %wait    %CPU   CPU  minflt/s  majflt/s     VSZ     RSS   %MEM   kB_rd/s   kB_wr/s kB_ccwr/s iodelay  Command
06:59:57 PM  1006    217504   96.00    4.00    0.00    0.00  100.00    20   2417.00      0.00  676168  601420   0.23   8153.00      0.00      0.00       0  perf_experiment

# Time        UID       PID    %usr %system  %guest   %wait    %CPU   CPU  minflt/s  majflt/s     VSZ     RSS   %MEM   kB_rd/s   kB_wr/s kB_ccwr/s iodelay  Command
06:59:58 PM  1006    217504   97.00    4.00    0.00    0.00  101.00    20   2431.00      0.00  676560  601932   0.23   8177.50      0.00      0.00       0  perf_experiment

# Time        UID       PID    %usr %system  %guest   %wait    %CPU   CPU  minflt/s  majflt/s     VSZ     RSS   %MEM   kB_rd/s   kB_wr/s kB_ccwr/s iodelay  Command
06:59:59 PM  1006    217504   96.00    4.00    0.00    0.00  100.00    20   2308.00      0.00  677096  602428   0.23   8215.00      0.00      0.00       0  perf_experiment

# Time        UID       PID    %usr %system  %guest   %wait    %CPU   CPU  minflt/s  majflt/s     VSZ     RSS   %MEM   kB_rd/s   kB_wr/s kB_ccwr/s iodelay  Command
07:00:00 PM  1006    217504   96.00    3.00    0.00    0.00   99.00    20   2178.00      0.00  677620  602948   0.23   8235.50      0.00      0.00       0  perf_experiment

# Time        UID       PID    %usr %system  %guest   %wait    %CPU   CPU  minflt/s  majflt/s     VSZ     RSS   %MEM   kB_rd/s   kB_wr/s kB_ccwr/s iodelay  Command
07:00:01 PM  1006    217504   95.00    5.00    0.00    0.00  100.00    20   5510.00      0.00  678140  603424   0.23   8169.00      0.00      0.00       0  perf_experiment

# Time        UID       PID    %usr %system  %guest   %wait    %CPU   CPU  minflt/s  majflt/s     VSZ     RSS   %MEM   kB_rd/s   kB_wr/s kB_ccwr/s iodelay  Command
07:00:02 PM  1006    217504   96.00    4.00    0.00    0.00  100.00    20   9276.00      0.00  678668  603940   0.23   8140.50      0.00      0.00       0  perf_experiment

# Time        UID       PID    %usr %system  %guest   %wait    %CPU   CPU  minflt/s  majflt/s     VSZ     RSS   %MEM   kB_rd/s   kB_wr/s kB_ccwr/s iodelay  Command
07:00:03 PM  1006    217504   94.00    6.00    0.00    0.00  100.00    20   2592.00      0.00  679068  604412   0.23   8195.00      0.00      0.00       0  perf_experiment

# Time        UID       PID    %usr %system  %guest   %wait    %CPU   CPU  minflt/s  majflt/s     VSZ     RSS   %MEM   kB_rd/s   kB_wr/s kB_ccwr/s iodelay  Command
07:00:04 PM  1006    217504   96.00    4.00    0.00    0.00  100.00    20   2343.00      0.00  679596  604948   0.23   8182.00      0.00      0.00       0  perf_experiment

# Time        UID       PID    %usr %system  %guest   %wait    %CPU   CPU  minflt/s  majflt/s     VSZ     RSS   %MEM   kB_rd/s   kB_wr/s kB_ccwr/s iodelay  Command
07:00:05 PM  1006    217504   98.00    2.00    0.00    0.00  100.00    20   2188.00      0.00  680120  605440   0.23   8180.00      0.00      0.00       0  perf_experiment

# Time        UID       PID    %usr %system  %guest   %wait    %CPU   CPU  minflt/s  majflt/s     VSZ     RSS   %MEM   kB_rd/s   kB_wr/s kB_ccwr/s iodelay  Command
07:00:06 PM  1006    217504   95.00    5.00    0.00    0.00  100.00    20   2125.00      0.00  680648  605916   0.23   8218.00      0.00      0.00       0  perf_experiment

# Time        UID       PID    %usr %system  %guest   %wait    %CPU   CPU  minflt/s  majflt/s     VSZ     RSS   %MEM   kB_rd/s   kB_wr/s kB_ccwr/s iodelay  Command
07:00:07 PM  1006    217504   98.00    2.00    0.00    0.00  100.00    20   2558.00      0.00  681164  606396   0.23   8172.50      0.00      0.00       0  perf_experiment

# Time        UID       PID    %usr %system  %guest   %wait    %CPU   CPU  minflt/s  majflt/s     VSZ     RSS   %MEM   kB_rd/s   kB_wr/s kB_ccwr/s iodelay  Command
07:00:08 PM  1006    217504   97.00    3.00    0.00    0.00  100.00    20   2879.00      0.00  681564  606900   0.23   8174.00      0.00      0.00       0  perf_experiment

# Time        UID       PID    %usr %system  %guest   %wait    %CPU   CPU  minflt/s  majflt/s     VSZ     RSS   %MEM   kB_rd/s   kB_wr/s kB_ccwr/s iodelay  Command
07:00:09 PM  1006    217504   97.00    3.00    0.00    0.00  100.00    20   2827.00      0.00  682088  607412   0.23   8186.00      0.00      0.00       0  perf_experiment

# Time        UID       PID    %usr %system  %guest   %wait    %CPU   CPU  minflt/s  majflt/s     VSZ     RSS   %MEM   kB_rd/s   kB_wr/s kB_ccwr/s iodelay  Command
07:00:10 PM  1006    217504   96.00    4.00    0.00    0.00  100.00    20   2782.00      0.00  682612  607928   0.23   8202.50      0.00      0.00       0  perf_experiment

# Time        UID       PID    %usr %system  %guest   %wait    %CPU   CPU  minflt/s  majflt/s     VSZ     RSS   %MEM   kB_rd/s   kB_wr/s kB_ccwr/s iodelay  Command
07:00:11 PM  1006    217504   93.00    7.00    0.00    0.00  100.00    20   2562.00      0.00  683136  608436   0.23   8196.50      0.00      0.00       0  perf_experiment

# Time        UID       PID    %usr %system  %guest   %wait    %CPU   CPU  minflt/s  majflt/s     VSZ     RSS   %MEM   kB_rd/s   kB_wr/s kB_ccwr/s iodelay  Command
07:00:12 PM  1006    217504   96.00    4.00    0.00    0.00  100.00    20   2430.00      0.00  683676  608912   0.23   8199.00      0.00      0.00       0  perf_experiment

# Time        UID       PID    %usr %system  %guest   %wait    %CPU   CPU  minflt/s  majflt/s     VSZ     RSS   %MEM   kB_rd/s   kB_wr/s kB_ccwr/s iodelay  Command
07:00:13 PM  1006    217504   96.00    4.00    0.00    0.00  100.00    20   2479.00      0.00  684048  609412   0.23   8168.00      0.00      0.00       0  perf_experiment

# Time        UID       PID    %usr %system  %guest   %wait    %CPU   CPU  minflt/s  majflt/s     VSZ     RSS   %MEM   kB_rd/s   kB_wr/s kB_ccwr/s iodelay  Command
07:00:14 PM  1006    217504   97.00    3.00    0.00    0.00  100.00    20   2332.00      0.00  684576  609940   0.23   8196.50      0.00      0.00       0  perf_experiment

# Time        UID       PID    %usr %system  %guest   %wait    %CPU   CPU  minflt/s  majflt/s     VSZ     RSS   %MEM   kB_rd/s   kB_wr/s kB_ccwr/s iodelay  Command
07:00:15 PM  1006    217504   92.00    8.00    0.00    0.00  100.00    20   2203.00      0.00  685116  610416   0.23   8205.00      0.00      0.00       0  perf_experiment

# Time        UID       PID    %usr %system  %guest   %wait    %CPU   CPU  minflt/s  majflt/s     VSZ     RSS   %MEM   kB_rd/s   kB_wr/s kB_ccwr/s iodelay  Command
07:00:16 PM  1006    217504   98.00    2.00    0.00    0.00  100.00    20   2064.00      0.00  685660  610948   0.23   8202.00      0.00      0.00       0  perf_experiment

# Time        UID       PID    %usr %system  %guest   %wait    %CPU   CPU  minflt/s  majflt/s     VSZ     RSS   %MEM   kB_rd/s   kB_wr/s kB_ccwr/s iodelay  Command
07:00:17 PM  1006    217504   96.00    4.00    0.00    0.00  100.00    20   1981.00      0.00  686160  611452   0.23   8196.00      0.00      0.00       0  perf_experiment

# Time        UID       PID    %usr %system  %guest   %wait    %CPU   CPU  minflt/s  majflt/s     VSZ     RSS   %MEM   kB_rd/s   kB_wr/s kB_ccwr/s iodelay  Command
07:00:18 PM  1006    217504   99.00    1.00    0.00    0.00  100.00    20   1982.00      0.00  686564  611900   0.23   8178.00      0.00      0.00       0  perf_experiment

# Time        UID       PID    %usr %system  %guest   %wait    %CPU   CPU  minflt/s  majflt/s     VSZ     RSS   %MEM   kB_rd/s   kB_wr/s kB_ccwr/s iodelay  Command
07:00:19 PM  1006    217504   96.00    4.00    0.00    0.00  100.00    20   3191.00      0.00  687088  612432   0.23   8180.00      0.00      0.00       0  perf_experiment

# Time        UID       PID    %usr %system  %guest   %wait    %CPU   CPU  minflt/s  majflt/s     VSZ     RSS   %MEM   kB_rd/s   kB_wr/s kB_ccwr/s iodelay  Command
07:00:20 PM  1006    217504   96.00    4.00    0.00    0.00  100.00    20  11132.00      0.00  687612  612932   0.23   8147.00      0.00      0.00       0  perf_experiment

# Time        UID       PID    %usr %system  %guest   %wait    %CPU   CPU  minflt/s  majflt/s     VSZ     RSS   %MEM   kB_rd/s   kB_wr/s kB_ccwr/s iodelay  Command
07:00:21 PM  1006    217504   97.00    3.00    0.00    0.00  100.00    20   2430.00      0.00  688132  613408   0.23   8208.00      0.00      0.00       0  perf_experiment

# Time        UID       PID    %usr %system  %guest   %wait    %CPU   CPU  minflt/s  majflt/s     VSZ     RSS   %MEM   kB_rd/s   kB_wr/s kB_ccwr/s iodelay  Command
07:00:22 PM  1006    217504   97.00    3.00    0.00    0.00  100.00    20   2263.00      0.00  688664  613924   0.23   8201.00      0.00      0.00       0  perf_experiment

# Time        UID       PID    %usr %system  %guest   %wait    %CPU   CPU  minflt/s  majflt/s     VSZ     RSS   %MEM   kB_rd/s   kB_wr/s kB_ccwr/s iodelay  Command
07:00:23 PM  1006    217504   97.00    3.00    0.00    0.00  100.00    20   2071.00      0.00  689056  614392   0.23   8185.00      0.00      0.00       0  perf_experiment

# Time        UID       PID    %usr %system  %guest   %wait    %CPU   CPU  minflt/s  majflt/s     VSZ     RSS   %MEM   kB_rd/s   kB_wr/s kB_ccwr/s iodelay  Command
07:00:24 PM  1006    217504   97.00    3.00    0.00    0.00  100.00    20   1979.00      0.00  689596  614904   0.23   8186.00      0.00      0.00       0  perf_experiment

# Time        UID       PID    %usr %system  %guest   %wait    %CPU   CPU  minflt/s  majflt/s     VSZ     RSS   %MEM   kB_rd/s   kB_wr/s kB_ccwr/s iodelay  Command
07:00:25 PM  1006    217504   98.00    2.00    0.00    0.00  100.00    20   1937.00      0.00  690132  615416   0.23   8198.50      0.00      0.00       0  perf_experiment

# Time        UID       PID    %usr %system  %guest   %wait    %CPU   CPU  minflt/s  majflt/s     VSZ     RSS   %MEM   kB_rd/s   kB_wr/s kB_ccwr/s iodelay  Command
07:00:26 PM  1006    217504   97.00    3.00    0.00    0.00  100.00    20   1849.00      0.00  690528  615900   0.23   8195.50      0.00      0.00       0  perf_experiment

# Time        UID       PID    %usr %system  %guest   %wait    %CPU   CPU  minflt/s  majflt/s     VSZ     RSS   %MEM   kB_rd/s   kB_wr/s kB_ccwr/s iodelay  Command
07:00:27 PM  1006    217504   96.00    4.00    0.00    0.00  100.00    20   2849.00      0.00  691060  616416   0.23   8182.50      0.00      0.00       0  perf_experiment

# Time        UID       PID    %usr %system  %guest   %wait    %CPU   CPU  minflt/s  majflt/s     VSZ     RSS   %MEM   kB_rd/s   kB_wr/s kB_ccwr/s iodelay  Command
07:00:28 PM  1006    217504   96.00    4.00    0.00    0.00  100.00    20   2810.00      0.00  691600  616904   0.23   8207.00      0.00      0.00       0  perf_experiment

# Time        UID       PID    %usr %system  %guest   %wait    %CPU   CPU  minflt/s  majflt/s     VSZ     RSS   %MEM   kB_rd/s   kB_wr/s kB_ccwr/s iodelay  Command
07:00:29 PM  1006    217504   96.00    4.00    0.00    0.00  100.00    20   2784.00      0.00  692132  617452   0.23   8179.00      0.00      0.00       0  perf_experiment

# Time        UID       PID    %usr %system  %guest   %wait    %CPU   CPU  minflt/s  majflt/s     VSZ     RSS   %MEM   kB_rd/s   kB_wr/s kB_ccwr/s iodelay  Command
07:00:30 PM  1006    217504   97.00    3.00    0.00    0.00  100.00    20   2615.00      0.00  692652  617888   0.23   8152.50      0.00      0.00       0  perf_experiment

# Time        UID       PID    %usr %system  %guest   %wait    %CPU   CPU  minflt/s  majflt/s     VSZ     RSS   %MEM   kB_rd/s   kB_wr/s kB_ccwr/s iodelay  Command
07:00:31 PM  1006    217504   95.00    5.00    0.00    0.00  100.00    20   2515.00      0.00  693056  618388   0.23   8201.50      0.00      0.00       0  perf_experiment

# Time        UID       PID    %usr %system  %guest   %wait    %CPU   CPU  minflt/s  majflt/s     VSZ     RSS   %MEM   kB_rd/s   kB_wr/s kB_ccwr/s iodelay  Command
07:00:32 PM  1006    217504   97.00    3.00    0.00    0.00  100.00    20   2349.00      0.00  693588  618916   0.23   8214.50      0.00      0.00       0  perf_experiment

# Time        UID       PID    %usr %system  %guest   %wait    %CPU   CPU  minflt/s  majflt/s     VSZ     RSS   %MEM   kB_rd/s   kB_wr/s kB_ccwr/s iodelay  Command
07:00:33 PM  1006    217504   97.00    3.00    0.00    0.00  100.00    20   2252.00      0.00  694116  619452   0.23   8227.50      0.00      0.00       0  perf_experiment

# Time        UID       PID    %usr %system  %guest   %wait    %CPU   CPU  minflt/s  majflt/s     VSZ     RSS   %MEM   kB_rd/s   kB_wr/s kB_ccwr/s iodelay  Command
07:00:34 PM  1006    217504   94.00    6.00    0.00    0.00  100.00    20   2287.00      0.00  694648  619944   0.24   8134.50      0.00      0.00       0  perf_experiment

# Time        UID       PID    %usr %system  %guest   %wait    %CPU   CPU  minflt/s  majflt/s     VSZ     RSS   %MEM   kB_rd/s   kB_wr/s kB_ccwr/s iodelay  Command
07:00:35 PM  1006    217504   95.00    5.00    0.00    0.00  100.00    20   2075.00      0.00  695032  620404   0.24   8222.00      0.00      0.00       0  perf_experiment

# Time        UID       PID    %usr %system  %guest   %wait    %CPU   CPU  minflt/s  majflt/s     VSZ     RSS   %MEM   kB_rd/s   kB_wr/s kB_ccwr/s iodelay  Command
07:00:36 PM  1006    217504   98.00    2.00    0.00    0.00  100.00    20   2129.00      0.00  695684  620980   0.24   8204.00      0.00      0.00       0  perf_experiment

# Time        UID       PID    %usr %system  %guest   %wait    %CPU   CPU  minflt/s  majflt/s     VSZ     RSS   %MEM   kB_rd/s   kB_wr/s kB_ccwr/s iodelay  Command
07:00:37 PM  1006    217504   95.00    5.00    0.00    0.00  100.00    20   1981.00      0.00  696092  621416   0.24   8208.50      0.00      0.00       0  perf_experiment

# Time        UID       PID    %usr %system  %guest   %wait    %CPU   CPU  minflt/s  majflt/s     VSZ     RSS   %MEM   kB_rd/s   kB_wr/s kB_ccwr/s iodelay  Command
07:00:38 PM  1006    217504   97.00    3.00    0.00    0.00  100.00    20   1928.00      0.00  696624  621944   0.24   8227.50      0.00      0.00       0  perf_experiment

# Time        UID       PID    %usr %system  %guest   %wait    %CPU   CPU  minflt/s  majflt/s     VSZ     RSS   %MEM   kB_rd/s   kB_wr/s kB_ccwr/s iodelay  Command
07:00:39 PM  1006    217504   94.00    6.00    0.00    0.00  100.00    20   1773.00      0.00  697032  622396   0.24   8228.50      0.00      0.00       0  perf_experiment

# Time        UID       PID    %usr %system  %guest   %wait    %CPU   CPU  minflt/s  majflt/s     VSZ     RSS   %MEM   kB_rd/s   kB_wr/s kB_ccwr/s iodelay  Command
07:00:40 PM  1006    217504   98.00    2.00    0.00    0.00  100.00    20   1733.00      0.00  697552  622904   0.24   8216.00      0.00      0.00       0  perf_experiment

# Time        UID       PID    %usr %system  %guest   %wait    %CPU   CPU  minflt/s  majflt/s     VSZ     RSS   %MEM   kB_rd/s   kB_wr/s kB_ccwr/s iodelay  Command
07:00:41 PM  1006    217504   97.00    3.00    0.00    0.00  100.00    20   1660.00      0.00  698080  623424   0.24   8231.50      0.00      0.00       0  perf_experiment

# Time        UID       PID    %usr %system  %guest   %wait    %CPU   CPU  minflt/s  majflt/s     VSZ     RSS   %MEM   kB_rd/s   kB_wr/s kB_ccwr/s iodelay  Command