1,Faster,3,5000000,2500000,128,512,198043,3029634


resource usage stats

Linux 5.4.0-42-generic (arcon1) 	10/24/2020 	_x86_64_	(64 CPU)

# Time        UID       PID    %usr %system  %guest   %wait    %CPU   CPU  minflt/s  majflt/s     VSZ     RSS   %MEM   kB_rd/s   kB_wr/s kB_ccwr/s iodelay  Command
09:27:39 PM  1006    217860   79.00   20.00    0.00    0.00   99.00    23 144413.00      0.00  590180  582632   0.22      0.00      4.00      0.00       0  perf_experiment

# Time        UID       PID    %usr %system  %guest   %wait    %CPU   CPU  minflt/s  majflt/s     VSZ     RSS   %MEM   kB_rd/s   kB_wr/s kB_ccwr/s iodelay  Command
09:27:40 PM  1006    217860   79.00    2.00    0.00    0.00   81.00    23      2.00      0.00  590180  582632   0.22      0.00 262144.00      0.00      19  perf_experiment

# Time        UID       PID    %usr %system  %guest   %wait    %CPU   CPU  minflt/s  majflt/s     VSZ     RSS   %MEM   kB_rd/s   kB_wr/s kB_ccwr/s iodelay  Command
09:27:41 PM  1006    217860   79.00    1.00    0.00    0.00   80.00    23      2.00      0.00  590180  582632   0.22      0.00 262144.00      0.00      19  perf_experiment

# Time        UID       PID    %usr %system  %guest   %wait    %CPU   CPU  minflt/s  majflt/s     VSZ     RSS   %MEM   kB_rd/s   kB_wr/s kB_ccwr/s iodelay  Command
09:27:42 PM  1006    217860   78.00    3.00    0.00    0.00   81.00    23      1.00      0.00  590180  582632   0.22      0.00 262144.00      0.00      19  perf_experiment

# Time        UID       PID    %usr %system  %guest   %wait    %CPU   CPU  minflt/s  majflt/s     VSZ     RSS   %MEM   kB_rd/s   kB_wr/s kB_ccwr/s iodelay  Command
09:27:43 PM  1006    217860   80.00    1.00    0.00    0.00   81.00    23      1.00      0.00  590180  582632   0.22      0.00 262144.00      0.00      19  perf_experiment

# Time        UID       PID    %usr %system  %guest   %wait    %CPU   CPU  minflt/s  majflt/s     VSZ     RSS   %MEM   kB_rd/s   kB_wr/s kB_ccwr/s iodelay  Command
09:27:44 PM  1006    217860   82.00    1.00    0.00    0.00   83.00    23      1.00      0.00  590180  582632   0.22      0.00 229376.00      0.00      17  perf_experiment

# Time        UID       PID    %usr %system  %guest   %wait    %CPU   CPU  minflt/s  majflt/s     VSZ     RSS   %MEM   kB_rd/s   kB_wr/s kB_ccwr/s iodelay  Command
09:27:45 PM  1006    217860   78.00    3.00    0.00    0.00   81.00    24      2.00      0.00  590180  583016   0.22      0.00 262144.00      0.00      20  perf_experiment

# Time        UID       PID    %usr %system  %guest   %wait    %CPU   CPU  minflt/s  majflt/s     VSZ     RSS   %MEM   kB_rd/s   kB_wr/s kB_ccwr/s iodelay  Command
09:27:46 PM  1006    217860   83.00    0.00    0.00    0.00   83.00    24      0.00      0.00  590180  583016   0.22      0.00 229376.00      0.00      17  perf_experiment

# Time        UID       PID    %usr %system  %guest   %wait    %CPU   CPU  minflt/s  majflt/s     VSZ     RSS   %MEM   kB_rd/s   kB_wr/s kB_ccwr/s iodelay  Command
09:27:47 PM  1006    217860   81.00    2.00    0.00    0.00   83.00    24      1.00      0.00  590180  583016   0.22      0.00 229376.00      0.00      16  perf_experiment

# Time        UID       PID    %usr %system  %guest   %wait    %CPU   CPU  minflt/s  majflt/s     VSZ     RSS   %MEM   kB_rd/s   kB_wr/s kB_ccwr/s iodelay  Command
09:27:48 PM  1006    217860   81.00    2.00    0.00    0.00   83.00    24      1.00      0.00  590312  583016   0.22      0.00 229376.00      0.00      17  perf_experiment

# Time        UID       PID    %usr %system  %guest   %wait    %CPU   CPU  minflt/s  majflt/s     VSZ     RSS   %MEM   kB_rd/s   kB_wr/s kB_ccwr/s iodelay  Command
09:27:49 PM  1006    217860   81.00    2.00    0.00    0.00   83.00    24      2.00      0.00  590312  583016   0.22      0.00 229376.00      0.00      17  perf_experiment

# Time        UID       PID    %usr %system  %guest   %wait    %CPU   CPU  minflt/s  majflt/s     VSZ     RSS   %MEM   kB_rd/s   kB_wr/s kB_ccwr/s iodelay  Command
09:27:50 PM  1006    217860   83.00    1.00    0.00    0.00   84.00    24      0.00      0.00  590312  583016   0.22      0.00 229376.00      0.00      17  perf_experiment

# Time        UID       PID    %usr %system  %guest   %wait    %CPU   CPU  minflt/s  majflt/s     VSZ     RSS   %MEM   kB_rd/s   kB_wr/s kB_ccwr/s iodelay  Command
09:27:51 PM  1006    217860   81.00    2.00    0.00    0.00   83.00    24      0.00      0.00  590312  583016   0.22      0.00 229376.00      0.00      17  perf_experiment

# Time        UID       PID    %usr %system  %guest   %wait    %CPU   CPU  minflt/s  majflt/s     VSZ     RSS   %MEM   kB_rd/s   kB_wr/s kB_ccwr/s iodelay  Command
09:27:52 PM  1006    217860   79.21    1.98    0.00    0.00   81.19    24      0.99      0.00  590312  583016   0.22      0.00 227104.95      0.00      17  perf_experiment

# Time        UID       PID    %usr %system  %guest   %wait    %CPU   CPU  minflt/s  majflt/s     VSZ     RSS   %MEM   kB_rd/s   kB_wr/s kB_ccwr/s iodelay  Command
09:27:53 PM  1006    217860   83.00    1.00    0.00    0.00   84.00    24      1.00      0.00  590312  583016   0.22      0.00 229376.00      0.00      15  perf_experiment

# Time        UID       PID    %usr %system  %guest   %wait    %CPU   CPU  minflt/s  majflt/s     VSZ     RSS   %MEM   kB_rd/s   kB_wr/s kB_ccwr/s iodelay  Command
09:27:54 PM  1006    217860   97.00    2.00    0.00    0.00   99.00    24     48.00      0.00  658040  583184   0.22  10869.50      0.00      0.00       2  perf_experiment

# Time        UID       PID    %usr %system  %guest   %wait    %CPU   CPU  minflt/s  majflt/s     VSZ     RSS   %MEM   kB_rd/s   kB_wr/s kB_ccwr/s iodelay  Command
09:27:55 PM  1006    217860   97.00    3.00    0.00    0.00  100.00    24     11.00      0.00  658040  583184   0.22  11236.00      0.00      0.00       0  perf_experiment

# Time        UID       PID    %usr %system  %guest   %wait    %CPU   CPU  minflt/s  majflt/s     VSZ     RSS   %MEM   kB_rd/s   kB_wr/s kB_ccwr/s iodelay  Command
09:27:56 PM  1006    217860   97.00    3.00    0.00    0.00  100.00    24   8220.00      0.00  658040  583292   0.22  11134.50      0.00      0.00       0  perf_experiment

# Time        UID       PID    %usr %system  %guest   %wait    %CPU   CPU  minflt/s  majflt/s     VSZ     RSS   %MEM   kB_rd/s   kB_wr/s kB_ccwr/s iodelay  Command
09:27:57 PM  1006    217860   97.00    2.00    0.00    0.00   99.00    24   1129.00      0.00  658176  583364   0.22  11197.50      0.00      0.00       0  perf_experiment

# Time        UID       PID    %usr %system  %guest   %wait    %CPU   CPU  minflt/s  majflt/s     VSZ     RSS   %MEM   kB_rd/s   kB_wr/s kB_ccwr/s iodelay  Command
09:27:58 PM  1006    217860   97.00    4.00    0.00    0.00  101.00    24    553.00      0.00  658312  583488   0.22  11225.00      0.00      0.00       0  perf_experiment

# Time        UID       PID    %usr %system  %guest   %wait    %CPU   CPU  minflt/s  majflt/s     VSZ     RSS   %MEM   kB_rd/s   kB_wr/s kB_ccwr/s iodelay  Command
09:27:59 PM  1006    217860   98.00    2.00    0.00    0.00  100.00    24    399.00      0.00  658312  583532   0.22  11196.50      0.00      0.00       0  perf_experiment

# Time        UID       PID    %usr %system  %guest   %wait    %CPU   CPU  minflt/s  majflt/s     VSZ     RSS   %MEM   kB_rd/s   kB_wr/s kB_ccwr/s iodelay  Command
09:28:00 PM  1006    217860   97.00    3.00    0.00    0.00  100.00    24    592.00      0.00  658444  583620   0.22  11101.50      0.00      0.00       0  perf_experiment

# Time        UID       PID    %usr %system  %guest   %wait    %CPU   CPU  minflt/s  majflt/s     VSZ     RSS   %MEM   kB_rd/s   kB_wr/s kB_ccwr/s iodelay  Command
09:28:01 PM  1006    217860  100.00    1.00    0.00    0.00  101.00    24    647.00      0.00  658444  583696   0.22  11223.00      0.00      0.00       0  perf_experiment

# Time        UID       PID    %usr %system  %guest   %wait    %CPU   CPU  minflt/s  majflt/s     VSZ     RSS   %MEM   kB_rd/s   kB_wr/s kB_ccwr/s iodelay  Command
09:28:02 PM  1006    217860   97.00    2.00    0.00    0.00   99.00    24    729.00      0.00  658576  583768   0.22  11175.50      0.00      0.00       0  perf_experiment

# Time        UID       PID    %usr %system  %guest   %wait    %CPU   CPU  minflt/s  majflt/s     VSZ     RSS   %MEM   kB_rd/s   kB_wr/s kB_ccwr/s iodelay  Command
09:28:03 PM  1006    217860   98.00    2.00    0.00    0.00  100.00    24    665.00      0.00  658704  583848   0.22  11160.50      0.00      0.00       0  perf_experiment

# Time        UID       PID    %usr %system  %guest   %wait    %CPU   CPU  minflt/s  majflt/s     VSZ     RSS   %MEM   kB_rd/s   kB_wr/s kB_ccwr/s iodelay  Command
09:28:04 PM  1006    217860   98.00    2.00    0.00    0.00  100.00    24    650.00      0.00  658704  583924   0.22  11308.50      0.00      0.00       0  perf_experiment

# Time        UID       PID    %usr %system  %guest   %wait    %CPU   CPU  minflt/s  majflt/s     VSZ     RSS   %MEM   kB_rd/s   kB_wr/s kB_ccwr/s iodelay  Command
09:28:05 PM  1006    217860   98.00    2.00    0.00    0.00  100.00    24    672.00      0.00  658828  584028   0.22  11305.50      0.00      0.00       0  perf_experiment

# Time        UID       PID    %usr %system  %guest   %wait    %CPU   CPU  minflt/s  majflt/s     VSZ     RSS   %MEM   kB_rd/s   kB_wr/s kB_ccwr/s iodelay  Command
09:28:06 PM  1006    217860   99.00    1.00    0.00    0.00  100.00    24    646.00      0.00  658828  584092   0.22  11349.00      0.00      0.00       0  perf_experiment

# Time        UID       PID    %usr %system  %guest   %wait    %CPU   CPU  minflt/s  majflt/s     VSZ     RSS   %MEM   kB_rd/s   kB_wr/s kB_ccwr/s iodelay  Command
09:28:07 PM  1006    217860   96.00    4.00    0.00    0.00  100.00    24    645.00      0.00  658960  584196   0.22  11288.00      0.00      0.00       0  perf_experiment

# Time        UID       PID    %usr %system  %guest   %wait    %CPU   CPU  minflt/s  majflt/s     VSZ     RSS   %MEM   kB_rd/s   kB_wr/s kB_ccwr/s iodelay  Command
09:28:08 PM  1006    217860   99.00    1.00    0.00    0.00  100.00    24    598.00      0.00  659092  584244   0.22  11214.00      0.00      0.00       0  perf_experiment

# Time        UID       PID    %usr %system  %guest   %wait    %CPU   CPU  minflt/s  majflt/s     VSZ     RSS   %MEM   kB_rd/s   kB_wr/s kB_ccwr/s iodelay  Command
09:28:09 PM  1006    217860   98.00    2.00    0.00    0.00  100.00    24    592.00      0.00  659092  584316   0.22  11326.00      0.00      0.00       0  perf_experiment

# Time        UID       PID    %usr %system  %guest   %wait    %CPU   CPU  minflt/s  majflt/s     VSZ     RSS   %MEM   kB_rd/s   kB_wr/s kB_ccwr/s iodelay  Command
09:28:10 PM  1006    217860   97.00    3.00    0.00    0.00  100.00    24   8918.00      0.00  659220  584424   0.22  11159.00      0.00      0.00       0  perf_experiment

# Time        UID       PID    %usr %system  %guest   %wait    %CPU   CPU  minflt/s  majflt/s     VSZ     RSS   %MEM   kB_rd/s   kB_wr/s kB_ccwr/s iodelay  Command
09:28:11 PM  1006    217860   97.00    3.00    0.00    0.00  100.00    24   1231.00      0.00  659220  584472   0.22  11329.00      0.00      0.00       0  perf_experiment

# Time        UID       PID    %usr %system  %guest   %wait    %CPU   CPU  minflt/s  majflt/s     VSZ     RSS   %MEM   kB_rd/s   kB_wr/s kB_ccwr/s iodelay  Command
09:28:12 PM  1006    217860   98.00    2.00    0.00    0.00  100.00    24    846.00      0.00  659352  584572   0.22  11327.00      0.00      0.00       0  perf_experiment

# Time        UID       PID    %usr %system  %guest   %wait    %CPU   CPU  minflt/s  majflt/s     VSZ     RSS   %MEM   kB_rd/s   kB_wr/s kB_ccwr/s iodelay  Command
09:28:13 PM  1006    217860   99.00    1.00    0.00    0.00  100.00    24    702.00      0.00  659484  584636   0.22  11336.00      0.00      0.00       0  perf_experiment

# Time        UID       PID    %usr %system  %guest   %wait    %CPU   CPU  minflt/s  majflt/s     VSZ     RSS   %MEM   kB_rd/s   kB_wr/s kB_ccwr/s iodelay  Command
09:28:14 PM  1006    217860   99.00    1.00    0.00    0.00  100.00    24    674.00      0.00  659484  584716   0.22  11324.00      0.00      0.00       0  perf_experiment

# Time        UID       PID    %usr %system  %guest   %wait    %CPU   CPU  minflt/s  majflt/s     VSZ     RSS   %MEM   kB_rd/s   kB_wr/s kB_ccwr/s iodelay  Command
09:28:15 PM  1006    217860   97.00    3.00    0.00    0.00  100.00    24    655.00      0.00  659620  584844   0.22  11233.00      0.00      0.00       0  perf_experiment

# Time        UID       PID    %usr %system  %guest   %wait    %CPU   CPU  minflt/s  majflt/s     VSZ     RSS   %MEM   kB_rd/s   kB_wr/s kB_ccwr/s iodelay  Command
09:28:16 PM  1006    217860   98.00    2.00    0.00    0.00  100.00    24    633.00      0.00  659620  584876   0.22  11315.00      0.00      0.00       0  perf_experiment

# Time        UID       PID    %usr %system  %guest   %wait    %CPU   CPU  minflt/s  majflt/s     VSZ     RSS   %MEM   kB_rd/s   kB_wr/s kB_ccwr/s iodelay  Command
09:28:17 PM  1006    217860   97.00    3.00    0.00    0.00  100.00    24    672.00      0.00  659748  584988   0.22  11280.00      0.00      0.00       0  perf_experiment

# Time        UID       PID    %usr %system  %guest   %wait    %CPU   CPU  minflt/s  majflt/s     VSZ     RSS   %MEM   kB_rd/s   kB_wr/s kB_ccwr/s iodelay  Command
09:28:18 PM  1006    217860   99.00    1.00    0.00    0.00  100.00    24    603.00      0.00  659856  585072   0.22  11313.50      0.00      0.00       0  perf_experiment

# Time        UID       PID    %usr %system  %guest   %wait    %CPU   CPU  minflt/s  majflt/s     VSZ     RSS   %MEM   kB_rd/s   kB_wr/s kB_ccwr/s iodelay  Command
09:28:19 PM  1006    217860   98.00    2.00    0.00    0.00  100.00    24    646.00      0.00  659856  585096   0.22  11293.50      0.00      0.00       0  perf_experiment

# Time        UID       PID    %usr %system  %guest   %wait    %CPU   CPU  minflt/s  majflt/s     VSZ     RSS   %MEM   kB_rd/s   kB_wr/s kB_ccwr/s iodelay  Command
09:28:20 PM  1006    217860   97.00    3.00    0.00    0.00  100.00    24    639.00      0.00  659968  585200   0.22  11232.50      0.00      0.00       0  perf_experiment

# Time        UID       PID    %usr %system  %guest   %wait    %CPU   CPU  minflt/s  majflt/s     VSZ     RSS   %MEM   kB_rd/s   kB_wr/s kB_ccwr/s iodelay  Command
09:28:21 PM  1006    217860   95.00    5.00    0.00    0.00  100.00    24    630.00      0.00  660096  585280   0.22  11360.00      0.00      0.00       0  perf_experiment

# Time        UID       PID    %usr %system  %guest   %wait    %CPU   CPU  minflt/s  majflt/s     VSZ     RSS   %MEM   kB_rd/s   kB_wr/s kB_ccwr/s iodelay  Command
09:28:22 PM  1006    217860   99.00    1.00    0.00    0.00  100.00    24    629.00      0.00  660200  585408   0.22  11310.50      0.00      0.00       0  perf_experiment

# Time        UID       PID    %usr %system  %guest   %wait    %CPU   CPU  minflt/s  majflt/s     VSZ     RSS   %MEM   kB_rd/s   kB_wr/s kB_ccwr/s iodelay  Command
09:28:23 PM  1006    217860   97.00    3.00    0.00    0.00  100.00    24    611.00      0.00  660200  585424   0.22  11317.50      0.00      0.00       0  perf_experiment

# Time        UID       PID    %usr %system  %guest   %wait    %CPU   CPU  minflt/s  majflt/s     VSZ     RSS   %MEM   kB_rd/s   kB_wr/s kB_ccwr/s iodelay  Command
09:28:24 PM  1006    217860   97.00    3.00    0.00    0.00  100.00    24    608.00      0.00  660328  585544   0.22  11325.00      0.00      0.00       0  perf_experiment

# Time        UID       PID    %usr %system  %guest   %wait    %CPU   CPU  minflt/s  majflt/s     VSZ     RSS   %MEM   kB_rd/s   kB_wr/s kB_ccwr/s iodelay  Command
09:28:25 PM  1006    217860  100.00    0.00    0.00    0.00  100.00    24    576.00      0.00  660452  585620   0.22  11326.00      0.00      0.00       0  perf_experiment

# Time        UID       PID    %usr %system  %guest   %wait    %CPU   CPU  minflt/s  majflt/s     VSZ     RSS   %MEM   kB_rd/s   kB_wr/s kB_ccwr/s iodelay  Command
09:28:26 PM  1006    217860   97.00    3.00    0.00    0.00  100.00    24    577.00      0.00  660452  585664   0.22  11287.00      0.00      0.00       0  perf_experiment

# Time        UID       PID    %usr %system  %guest   %wait    %CPU   CPU  minflt/s  majflt/s     VSZ     RSS   %MEM   kB_rd/s   kB_wr/s kB_ccwr/s iodelay  Command
09:28:27 PM  1006    217860   98.00    2.00    0.00    0.00  100.00    24    654.00      0.00  660576  585772   0.22  11296.50      0.00      0.00       0  perf_experiment

# Time        UID       PID    %usr %system  %guest   %wait    %CPU   CPU  minflt/s  majflt/s     VSZ     RSS   %MEM   kB_rd/s   kB_wr/s kB_ccwr/s iodelay  Command
09:28:28 PM  1006    217860   97.00    3.00    0.00    0.00  100.00    24   8829.00      0.00  660576  585824   0.22  11215.00      0.00      0.00       0  perf_experiment

# Time        UID       PID    %usr %system  %guest   %wait    %CPU   CPU  minflt/s  majflt/s     VSZ     RSS   %MEM   kB_rd/s   kB_wr/s kB_ccwr/s iodelay  Command
09:28:29 PM  1006    217860   98.00    2.00    0.00    0.00  100.00    24   1301.00      0.00  660704  585920   0.22  11281.50      0.00      0.00       0  perf_experiment

# Time        UID       PID    %usr %system  %guest   %wait    %CPU   CPU  minflt/s  majflt/s     VSZ     RSS   %MEM   kB_rd/s   kB_wr/s kB_ccwr/s iodelay  Command
09:28:30 PM  1006    217860   98.00    2.00    0.00    0.00  100.00    24    837.00      0.00  660840  586008   0.22  11267.00      0.00      0.00       0  perf_experiment

# Time        UID       PID    %usr %system  %guest   %wait    %CPU   CPU  minflt/s  majflt/s     VSZ     RSS   %MEM   kB_rd/s   kB_wr/s kB_ccwr/s iodelay  Command
09:28:31 PM  1006    217860   99.00    1.00    0.00    0.00  100.00    24    715.00      0.00  660840  586064   0.22  11291.00      0.00      0.00       0  perf_experiment

# Time        UID       PID    %usr %system  %guest   %wait    %CPU   CPU  minflt/s  majflt/s     VSZ     RSS   %MEM   kB_rd/s   kB_wr/s kB_ccwr/s iodelay  Command
09:28:32 PM  1006    217860   98.00    2.00    0.00    0.00  100.00    24    690.00      0.00  660968  586152   0.22  11261.00      0.00      0.00       0  perf_experiment

# Time        UID       PID    %usr %system  %guest   %wait    %CPU   CPU  minflt/s  majflt/s     VSZ     RSS   %MEM   kB_rd/s   kB_wr/s kB_ccwr/s iodelay  Command
09:28:33 PM  1006    217860   98.00    2.00    0.00    0.00  100.00    24    613.00      0.00  660968  586232   0.22  11341.00      0.00      0.00       0  perf_experiment

# Time        UID       PID    %usr %system  %guest   %wait    %CPU   CPU  minflt/s  majflt/s     VSZ     RSS   %MEM   kB_rd/s   kB_wr/s kB_ccwr/s iodelay  Command
09:28:34 PM  1006    217860   97.00    3.00    0.00    0.00  100.00    24    608.00      0.00  661104  586312   0.22  11280.00      0.00      0.00       0  perf_experiment

# Time        UID       PID    %usr %system  %guest   %wait    %CPU   CPU  minflt/s  majflt/s     VSZ     RSS   %MEM   kB_rd/s   kB_wr/s kB_ccwr/s iodelay  Command
09:28:35 PM  1006    217860   97.00    2.00    0.00    0.00   99.00    24    666.00      0.00  661240  586400   0.22  11259.00      0.00      0.00       0  perf_experiment

# Time        UID       PID    %usr %system  %guest   %wait    %CPU   CPU  minflt/s  majflt/s     VSZ     RSS   %MEM   kB_rd/s   kB_wr/s kB_ccwr/s iodelay  Command
09:28:36 PM  1006    217860   99.00    2.00    0.00    0.00  101.00    24    639.00      0.00  661240  586472   0.22  11302.00      0.00      0.00       0  perf_experiment

# Time        UID       PID    %usr %system  %guest   %wait    %CPU   CPU  minflt/s  majflt/s     VSZ     RSS   %MEM   kB_rd/s   kB_wr/s kB_ccwr/s iodelay  Command
09:28:37 PM  1006    217860   96.00    4.00    0.00    0.00  100.00    24    622.00      0.00  661376  586536   0.22  11304.50      0.00      0.00       0  perf_experiment

# Time        UID       PID    %usr %system  %guest   %wait    %CPU   CPU  minflt/s  majflt/s     VSZ     RSS   %MEM   kB_rd/s   kB_wr/s kB_ccwr/s iodelay  Command
09:28:38 PM  1006    217860   97.00    2.00    0.00    0.00   99.00    24    600.00      0.00  661376  586600   0.22  11313.50      0.00      0.00       0  perf_experiment

# Time        UID       PID    %usr %system  %guest   %wait    %CPU   CPU  minflt/s  majflt/s     VSZ     RSS   %MEM   kB_rd/s   kB_wr/s kB_ccwr/s iodelay  Command
09:28:39 PM  1006    217860   97.00    4.00    0.00    0.00  101.00    24    613.00      0.00  661512  586700   0.22  11303.50      0.00      0.00       0  perf_experiment

# Time        UID       PID    %usr %system  %guest   %wait    %CPU   CPU  minflt/s  majflt/s     VSZ     RSS   %MEM   kB_rd/s   kB_wr/s kB_ccwr/s iodelay  Command
09:28:40 PM  1006    217860   97.00    2.00    0.00    0.00   99.00    24    606.00      0.00  661644  586788   0.22  11335.50      0.00      0.00       0  perf_experiment

# Time        UID       PID    %usr %system  %guest   %wait    %CPU   CPU  minflt/s  majflt/s     VSZ     RSS   %MEM   kB_rd/s   kB_wr/s kB_ccwr/s iodelay  Command
09:28:41 PM  1006    217860   99.00    2.00    0.00    0.00  101.00    24    599.00      0.00  661644  586868   0.22  11390.00      0.00      0.00       0  perf_experiment

# Time        UID       PID    %usr %system  %guest   %wait    %CPU   CPU  minflt/s  majflt/s     VSZ     RSS   %MEM   kB_rd/s   kB_wr/s kB_ccwr/s iodelay  Command
09:28:42 PM  1006    217860   96.00    4.00    0.00    0.00  100.00    24    616.00      0.00  661780  586936   0.22  11297.50      0.00      0.00       0  perf_experiment

# Time        UID       PID    %usr %system  %guest   %wait    %CPU   CPU  minflt/s  majflt/s     VSZ     RSS   %MEM   kB_rd/s   kB_wr/s kB_ccwr/s iodelay  Command
09:28:43 PM  1006    217860   99.00    1.00    0.00    0.00  100.00    24    612.00      0.00  661780  587016   0.22  11291.50      0.00      0.00       0  perf_experiment

# Time        UID       PID    %usr %system  %guest   %wait    %CPU   CPU  minflt/s  majflt/s     VSZ     RSS   %MEM   kB_rd/s   kB_wr/s kB_ccwr/s iodelay  Command
09:28:44 PM  1006    217860   98.00    2.00    0.00    0.00  100.00    24    654.00      0.00  661904  587120   0.22  11298.50      0.00      0.00       0  perf_experiment

# Time        UID       PID    %usr %system  %guest   %wait    %CPU   CPU  minflt/s  majflt/s     VSZ     RSS   %MEM   kB_rd/s   kB_wr/s kB_ccwr/s iodelay  Command
09:28:45 PM  1006    217860   97.00    3.00    0.00    0.00  100.00    24    572.00      0.00  661904  587168   0.22  11292.50      0.00      0.00       0  perf_experiment

# Time        UID       PID    %usr %system  %guest   %wait    %CPU   CPU  minflt/s  majflt/s     VSZ     RSS   %MEM   kB_rd/s   kB_wr/s kB_ccwr/s iodelay  Command
09:28:46 PM  1006    217860   98.00    2.00    0.00    0.00  100.00    24    611.00      0.00  662040  587272   0.22  11246.00      0.00      0.00       0  perf_experiment

# Time        UID       PID    %usr %system  %guest   %wait    %CPU   CPU  minflt/s  majflt/s     VSZ     RSS   %MEM   kB_rd/s   kB_wr/s kB_ccwr/s iodelay  Command
09:28:47 PM  1006    217860   96.00    4.00    0.00    0.00  100.00    24    594.00      0.00  662168  587336   0.22  11294.50      0.00      0.00       0  perf_experiment

# Time        UID       PID    %usr %system  %guest   %wait    %CPU   CPU  minflt/s  majflt/s     VSZ     RSS   %MEM   kB_rd/s   kB_wr/s kB_ccwr/s iodelay  Command
09:28:48 PM  1006    217860   99.00    2.00    0.00    0.00  101.00    24    535.00      0.00  662168  587420   0.22  11287.50      0.00      0.00       0  perf_experiment

# Time        UID       PID    %usr %system  %guest   %wait    %CPU   CPU  minflt/s  majflt/s     VSZ     RSS   %MEM   kB_rd/s   kB_wr/s kB_ccwr/s iodelay  Command
09:28:49 PM  1006    217860   97.00    2.00    0.00    0.00   99.00    24    588.00      0.00  662300  587484   0.22  11275.00      0.00      0.00       0  perf_experiment

# Time        UID       PID    %usr %system  %guest   %wait    %CPU   CPU  minflt/s  majflt/s     VSZ     RSS   %MEM   kB_rd/s   kB_wr/s kB_ccwr/s iodelay  Command
09:28:50 PM  1006    217860   99.00    1.00    0.00    0.00  100.00    24    539.00      0.00  662428  587572   0.22  11286.50      0.00      0.00       0  perf_experiment

# Time        UID       PID    %usr %system  %guest   %wait    %CPU   CPU  minflt/s  majflt/s     VSZ     RSS   %MEM   kB_rd/s   kB_wr/s kB_ccwr/s iodelay  Command
09:28:51 PM  1006    217860   98.00    2.00    0.00    0.00  100.00    24   7864.00      0.00  662428  587652   0.22  11226.50      0.00      0.00       0  perf_experiment

# Time        UID       PID    %usr %system  %guest   %wait    %CPU   CPU  minflt/s  majflt/s     VSZ     RSS   %MEM   kB_rd/s   kB_wr/s kB_ccwr/s iodelay  Command
09:28:52 PM  1006    217860   99.00    1.00    0.00    0.00  100.00    24   2133.00      0.00  662560  587748   0.22  11314.00      0.00      0.00       0  perf_experiment

# Time        UID       PID    %usr %system  %guest   %wait    %CPU   CPU  minflt/s  majflt/s     VSZ     RSS   %MEM   kB_rd/s   kB_wr/s kB_ccwr/s iodelay  Command
09:28:53 PM  1006    217860   98.00    2.00    0.00    0.00  100.00    24    834.00      0.00  662560  587788   0.22  11297.00      0.00      0.00       0  perf_experiment

# Time        UID       PID    %usr %system  %guest   %wait    %CPU   CPU  minflt/s  majflt/s     VSZ     RSS   %MEM   kB_rd/s   kB_wr/s kB_ccwr/s iodelay  Command
09:28:54 PM  1006    217860   98.00    2.00    0.00    0.00  100.00    24    702.00      0.00  662692  587908   0.22  11307.00      0.00      0.00       0  perf_experiment

# Time        UID       PID    %usr %system  %guest   %wait    %CPU   CPU  minflt/s  majflt/s     VSZ     RSS   %MEM   kB_rd/s   kB_wr/s kB_ccwr/s iodelay  Command
09:28:55 PM  1006    217860   97.00    3.00    0.00    0.00  100.00    24    641.00      0.00  662828  587972   0.22  11323.50      0.00      0.00       0  perf_experiment

# Time        UID       PID    %usr %system  %guest   %wait    %CPU   CPU  minflt/s  majflt/s     VSZ     RSS   %MEM   kB_rd/s   kB_wr/s kB_ccwr/s iodelay  Command
09:28:56 PM  1006    217860  100.00    1.00    0.00    0.00  101.00    24    606.00      0.00  662828  588060   0.22  11306.50      0.00      0.00       0  perf_experiment

# Time        UID       PID    %usr %system  %guest   %wait    %CPU   CPU  minflt/s  majflt/s     VSZ     RSS   %MEM   kB_rd/s   kB_wr/s kB_ccwr/s iodelay  Command
09:28:57 PM  1006    217860   98.00    1.00    0.00    0.00   99.00    24    565.00      0.00  662964  588108   0.22  11318.50      0.00      0.00       0  perf_experiment

# Time        UID       PID    %usr %system  %guest   %wait    %CPU   CPU  minflt/s  majflt/s     VSZ     RSS   %MEM   kB_rd/s   kB_wr/s kB_ccwr/s iodelay  Command
09:28:58 PM  1006    217860   96.00    4.00    0.00    0.00  100.00    24    608.00      0.00  662964  588200   0.22  11309.00      0.00      0.00       0  perf_experiment

# Time        UID       PID    %usr %system  %guest   %wait    %CPU   CPU  minflt/s  majflt/s     VSZ     RSS   %MEM   kB_rd/s   kB_wr/s kB_ccwr/s iodelay  Command
09:28:59 PM  1006    217860   98.00    2.00    0.00    0.00  100.00    24    589.00      0.00  663080  588300   0.22  11313.50      0.00      0.00       0  perf_experiment

# Time        UID       PID    %usr %system  %guest   %wait    %CPU   CPU  minflt/s  majflt/s     VSZ     RSS   %MEM   kB_rd/s   kB_wr/s kB_ccwr/s iodelay  Command
09:29:00 PM  1006    217860   99.00    1.00    0.00    0.00  100.00    24    588.00      0.00  663188  588376   0.22  11308.00      0.00      0.00       0  perf_experiment

# Time        UID       PID    %usr %system  %guest   %wait    %CPU   CPU  minflt/s  majflt/s     VSZ     RSS   %MEM   kB_rd/s   kB_wr/s kB_ccwr/s iodelay  Command
09:29:01 PM  1006    217860   98.00    2.00    0.00    0.00  100.00    24    656.00      0.00  663188  588432   0.22  11276.50      0.00      0.00       0  perf_experiment

# Time        UID       PID    %usr %system  %guest   %wait    %CPU   CPU  minflt/s  majflt/s     VSZ     RSS   %MEM   kB_rd/s   kB_wr/s kB_ccwr/s iodelay  Command
09:29:02 PM  1006    217860   97.00    3.00    0.00    0.00  100.00    24    614.00      0.00  663320  588512   0.22  11271.50      0.00      0.00       0  perf_experiment

# Time        UID       PID    %usr %system  %guest   %wait    %CPU   CPU  minflt/s  majflt/s     VSZ     RSS   %MEM   kB_rd/s   kB_wr/s kB_ccwr/s iodelay  Command
09:29:03 PM  1006    217860   98.00    2.00    0.00    0.00  100.00    24    654.00      0.00  663448  588592   0.22  11344.00      0.00      0.00       0  perf_experiment

# Time        UID       PID    %usr %system  %guest   %wait    %CPU   CPU  minflt/s  majflt/s     VSZ     RSS   %MEM   kB_rd/s   kB_wr/s kB_ccwr/s iodelay  Command
09:29:04 PM  1006    217860   98.00    2.00    0.00    0.00  100.00    24    632.00      0.00  663448  588668   0.22  11283.00      0.00      0.00       0  perf_experiment

# Time        UID       PID    %usr %system  %guest   %wait    %CPU   CPU  minflt/s  majflt/s     VSZ     RSS   %MEM   kB_rd/s   kB_wr/s kB_ccwr/s iodelay  Command
09:29:05 PM  1006    217860   97.00    3.00    0.00    0.00  100.00    24    637.00      0.00  663580  588772   0.22  11310.50      0.00      0.00       0  perf_experiment

# Time        UID       PID    %usr %system  %guest   %wait    %CPU   CPU  minflt/s  majflt/s     VSZ     RSS   %MEM   kB_rd/s   kB_wr/s kB_ccwr/s iodelay  Command
09:29:06 PM  1006    217860   99.00    1.00    0.00    0.00  100.00    24    642.00      0.00  663580  588840   0.22  11288.00      0.00      0.00       0  perf_experiment

# Time        UID       PID    %usr %system  %guest   %wait    %CPU   CPU  minflt/s  majflt/s     VSZ     RSS   %MEM   kB_rd/s   kB_wr/s kB_ccwr/s iodelay  Command