1,Sled,1,5000000,2500000,128,512,18044,5000000


resource usage stats

Linux 5.4.0-42-generic (arcon1) 	10/24/2020 	_x86_64_	(64 CPU)

# Time        UID       PID    %usr %system  %guest   %wait    %CPU   CPU  minflt/s  majflt/s     VSZ     RSS   %MEM   kB_rd/s   kB_wr/s kB_ccwr/s iodelay  Command
08:31:09 PM  1006    217792  104.00   81.00    0.00    0.00  185.00    53 113407.00      0.00  745408  194076   0.07      0.00 264716.00      0.00       0  perf_experiment

# Time        UID       PID    %usr %system  %guest   %wait    %CPU   CPU  minflt/s  majflt/s     VSZ     RSS   %MEM   kB_rd/s   kB_wr/s kB_ccwr/s iodelay  Command
08:31:10 PM  1006    217792  112.00   61.00    0.00    0.00  173.00    53  79607.00      0.00  854476  303116   0.11      0.00 206700.00      0.00       0  perf_experiment

# Time        UID       PID    %usr %system  %guest   %wait    %CPU   CPU  minflt/s  majflt/s     VSZ     RSS   %MEM   kB_rd/s   kB_wr/s kB_ccwr/s iodelay  Command
08:31:11 PM  1006    217792  107.00   73.00    0.00    0.00  180.00    53 129306.00      0.00  919016  368072   0.14      0.00 255140.00      0.00       0  perf_experiment

# Time        UID       PID    %usr %system  %guest   %wait    %CPU   CPU  minflt/s  majflt/s     VSZ     RSS   %MEM   kB_rd/s   kB_wr/s kB_ccwr/s iodelay  Command
08:31:12 PM  1006    217792  107.00   59.00    0.00    0.00  166.00    53  67839.00      0.00 1001244  451040   0.17      0.00 185308.00      0.00       0  perf_experiment

# Time        UID       PID    %usr %system  %guest   %wait    %CPU   CPU  minflt/s  majflt/s     VSZ     RSS   %MEM   kB_rd/s   kB_wr/s kB_ccwr/s iodelay  Command
08:31:13 PM  1006    217792   99.00   57.00    0.00    0.00  156.00    53  86905.00      0.00 1002176  452444   0.17      0.00  94952.00      0.00       0  perf_experiment

# Time        UID       PID    %usr %system  %guest   %wait    %CPU   CPU  minflt/s  majflt/s     VSZ     RSS   %MEM   kB_rd/s   kB_wr/s kB_ccwr/s iodelay  Command
08:31:14 PM  1006    217792   94.00   71.00    0.00    0.00  165.00    53  54552.00      0.00 1002176  454380   0.17      0.00 140296.00      0.00       0  perf_experiment

# Time        UID       PID    %usr %system  %guest   %wait    %CPU   CPU  minflt/s  majflt/s     VSZ     RSS   %MEM   kB_rd/s   kB_wr/s kB_ccwr/s iodelay  Command
08:31:15 PM  1006    217792   94.00   39.00    0.00    0.00  133.00    53  27461.00      0.00 1038756  491780   0.19      0.00  51236.00      0.00       0  perf_experiment

# Time        UID       PID    %usr %system  %guest   %wait    %CPU   CPU  minflt/s  majflt/s     VSZ     RSS   %MEM   kB_rd/s   kB_wr/s kB_ccwr/s iodelay  Command
08:31:16 PM  1006    217792   98.00   60.00    0.00    0.00  158.00    53  93492.00      0.00 1052688  506240   0.19      0.00  97796.00      0.00       0  perf_experiment

# Time        UID       PID    %usr %system  %guest   %wait    %CPU   CPU  minflt/s  majflt/s     VSZ     RSS   %MEM   kB_rd/s   kB_wr/s kB_ccwr/s iodelay  Command
08:31:17 PM  1006    217792  104.00   88.00    0.00    0.00  192.00    53  46217.00      0.00 1053212  506588   0.19      0.00 183300.00      0.00       0  perf_experiment

# Time        UID       PID    %usr %system  %guest   %wait    %CPU   CPU  minflt/s  majflt/s     VSZ     RSS   %MEM   kB_rd/s   kB_wr/s kB_ccwr/s iodelay  Command
08:31:18 PM  1006    217792   98.00   86.00    0.00    0.00  184.00    53  74720.00      0.00 1052164  505876   0.19      0.00 173080.00      0.00       0  perf_experiment

# Time        UID       PID    %usr %system  %guest   %wait    %CPU   CPU  minflt/s  majflt/s     VSZ     RSS   %MEM   kB_rd/s   kB_wr/s kB_ccwr/s iodelay  Command
08:31:19 PM  1006    217792   99.00   68.00    0.00    0.00  167.00    53  34349.00      0.00 1051640  505640   0.19      0.00 127476.00      0.00       0  perf_experiment

# Time        UID       PID    %usr %system  %guest   %wait    %CPU   CPU  minflt/s  majflt/s     VSZ     RSS   %MEM   kB_rd/s   kB_wr/s kB_ccwr/s iodelay  Command
08:31:20 PM  1006    217792   95.00   27.00    0.00    0.00  122.00    53  17716.00      0.00 1093440  546892   0.21      0.00  29744.00      0.00       0  perf_experiment

# Time        UID       PID    %usr %system  %guest   %wait    %CPU   CPU  minflt/s  majflt/s     VSZ     RSS   %MEM   kB_rd/s   kB_wr/s kB_ccwr/s iodelay  Command
08:31:21 PM  1006    217792   93.00   63.00    0.00    0.00  156.00    53  84960.00      0.00 1097852  552108   0.21      0.00  73736.00      0.00       0  perf_experiment

# Time        UID       PID    %usr %system  %guest   %wait    %CPU   CPU  minflt/s  majflt/s     VSZ     RSS   %MEM   kB_rd/s   kB_wr/s kB_ccwr/s iodelay  Command
08:31:22 PM  1006    217792  101.00   57.00    0.00    0.00  158.00    53  22017.00      0.00 1098900  553044   0.21      0.00  88072.00      0.00       0  perf_experiment

# Time        UID       PID    %usr %system  %guest   %wait    %CPU   CPU  minflt/s  majflt/s     VSZ     RSS   %MEM   kB_rd/s   kB_wr/s kB_ccwr/s iodelay  Command
08:31:23 PM  1006    217792  101.00   50.00    0.00    0.00  151.00    53  16038.00      0.00 1097732  552248   0.21      0.00  74248.00      0.00       0  perf_experiment

# Time        UID       PID    %usr %system  %guest   %wait    %CPU   CPU  minflt/s  majflt/s     VSZ     RSS   %MEM   kB_rd/s   kB_wr/s kB_ccwr/s iodelay  Command
08:31:24 PM  1006    217792   94.00   26.00    0.00    0.00  120.00    53  43604.00      0.00 1097732  552820   0.21      0.00  21512.00      0.00       0  perf_experiment

# Time        UID       PID    %usr %system  %guest   %wait    %CPU   CPU  minflt/s  majflt/s     VSZ     RSS   %MEM   kB_rd/s   kB_wr/s kB_ccwr/s iodelay  Command
08:31:25 PM  1006    217792   93.00   27.00    0.00    0.00  120.00    53   3117.00      0.00 1097208  554172   0.21      0.00  22536.00      0.00       0  perf_experiment

# Time        UID       PID    %usr %system  %guest   %wait    %CPU   CPU  minflt/s  majflt/s     VSZ     RSS   %MEM   kB_rd/s   kB_wr/s kB_ccwr/s iodelay  Command
08:31:26 PM  1006    217792   94.00   25.00    0.00    0.00  119.00    53    298.00      0.00 1097208  554320   0.21      0.00  18952.00      0.00       0  perf_experiment

# Time        UID       PID    %usr %system  %guest   %wait    %CPU   CPU  minflt/s  majflt/s     VSZ     RSS   %MEM   kB_rd/s   kB_wr/s kB_ccwr/s iodelay  Command
08:31:27 PM  1006    217792   89.00   30.00    0.00    0.00  119.00    53    310.00      0.00 1097208  554736   0.21      0.00  20488.00      0.00       0  perf_experiment

# Time        UID       PID    %usr %system  %guest   %wait    %CPU   CPU  minflt/s  majflt/s     VSZ     RSS   %MEM   kB_rd/s   kB_wr/s kB_ccwr/s iodelay  Command
08:31:28 PM  1006    217792   92.00   26.00    0.00    0.00  118.00    53    158.00      0.00 1097208  555504   0.21      0.00  19976.00      0.00       0  perf_experiment

# Time        UID       PID    %usr %system  %guest   %wait    %CPU   CPU  minflt/s  majflt/s     VSZ     RSS   %MEM   kB_rd/s   kB_wr/s kB_ccwr/s iodelay  Command
08:31:29 PM  1006    217792   90.00   28.00    0.00    0.00  118.00    53    171.00      0.00 1097208  556180   0.21      0.00  19464.00      0.00       0  perf_experiment

# Time        UID       PID    %usr %system  %guest   %wait    %CPU   CPU  minflt/s  majflt/s     VSZ     RSS   %MEM   kB_rd/s   kB_wr/s kB_ccwr/s iodelay  Command
08:31:30 PM  1006    217792   92.00   29.00    0.00    0.00  121.00    53   1257.00      0.00 1097732  556904   0.21      0.00  22536.00      0.00       0  perf_experiment

# Time        UID       PID    %usr %system  %guest   %wait    %CPU   CPU  minflt/s  majflt/s     VSZ     RSS   %MEM   kB_rd/s   kB_wr/s kB_ccwr/s iodelay  Command
08:31:31 PM  1006    217792   93.00   27.00    0.00    0.00  120.00    53   1272.00      0.00 1097208  557160   0.21      0.00  18440.00      0.00       0  perf_experiment

# Time        UID       PID    %usr %system  %guest   %wait    %CPU   CPU  minflt/s  majflt/s     VSZ     RSS   %MEM   kB_rd/s   kB_wr/s kB_ccwr/s iodelay  Command
08:31:32 PM  1006    217792   93.00   46.00    0.00    0.00  139.00    53   2069.00      0.00 1097208  558132   0.21      0.00  42504.00      0.00       0  perf_experiment

# Time        UID       PID    %usr %system  %guest   %wait    %CPU   CPU  minflt/s  majflt/s     VSZ     RSS   %MEM   kB_rd/s   kB_wr/s kB_ccwr/s iodelay  Command
08:31:33 PM  1006    217792   97.00   64.00    0.00    0.00  161.00    53   1122.00      0.00 1097208  558124   0.21      0.00  68104.00      0.00       0  perf_experiment

# Time        UID       PID    %usr %system  %guest   %wait    %CPU   CPU  minflt/s  majflt/s     VSZ     RSS   %MEM   kB_rd/s   kB_wr/s kB_ccwr/s iodelay  Command
08:31:34 PM  1006    217792   96.00   59.00    0.00    0.00  155.00    53  65944.00      0.00 1097208  559952   0.21      0.00  66568.00      0.00       0  perf_experiment

# Time        UID       PID    %usr %system  %guest   %wait    %CPU   CPU  minflt/s  majflt/s     VSZ     RSS   %MEM   kB_rd/s   kB_wr/s kB_ccwr/s iodelay  Command
08:31:35 PM  1006    217792  103.00   56.00    0.00    0.00  159.00    54   1275.00      0.00 1097208  559960   0.21      0.00  73224.00      0.00       0  perf_experiment

# Time        UID       PID    %usr %system  %guest   %wait    %CPU   CPU  minflt/s  majflt/s     VSZ     RSS   %MEM   kB_rd/s   kB_wr/s kB_ccwr/s iodelay  Command
08:31:36 PM  1006    217792   94.00   74.00    0.00    0.00  168.00    54    841.00      0.00 1097208  559648   0.21      0.00  91656.00      0.00       0  perf_experiment

# Time        UID       PID    %usr %system  %guest   %wait    %CPU   CPU  minflt/s  majflt/s     VSZ     RSS   %MEM   kB_rd/s   kB_wr/s kB_ccwr/s iodelay  Command
08:31:37 PM  1006    217792   94.00   84.00    0.00    0.00  178.00    54    878.00      0.00 1097208  559600   0.21      0.00 114180.00      0.00       0  perf_experiment

# Time        UID       PID    %usr %system  %guest   %wait    %CPU   CPU  minflt/s  majflt/s     VSZ     RSS   %MEM   kB_rd/s   kB_wr/s kB_ccwr/s iodelay  Command
08:31:38 PM  1006    217792  108.00   69.00    0.00    0.00  177.00    54    961.00      0.00 1097732  559824   0.21      0.00 103428.00      0.00       0  perf_experiment

# Time        UID       PID    %usr %system  %guest   %wait    %CPU   CPU  minflt/s  majflt/s     VSZ     RSS   %MEM   kB_rd/s   kB_wr/s kB_ccwr/s iodelay  Command
08:31:39 PM  1006    217792  105.00   79.00    0.00    0.00  184.00    54   3481.00      0.00 1098256  560496   0.21      0.00 110088.00      0.00       0  perf_experiment

# Time        UID       PID    %usr %system  %guest   %wait    %CPU   CPU  minflt/s  majflt/s     VSZ     RSS   %MEM   kB_rd/s   kB_wr/s kB_ccwr/s iodelay  Command
08:31:40 PM  1006    217792  115.00   70.00    0.00    0.00  185.00    55   4445.00      0.00 1097208  559780   0.21      0.00 114692.00      0.00       0  perf_experiment

# Time        UID       PID    %usr %system  %guest   %wait    %CPU   CPU  minflt/s  majflt/s     VSZ     RSS   %MEM   kB_rd/s   kB_wr/s kB_ccwr/s iodelay  Command
08:31:41 PM  1006    217792  106.00   88.00    0.00    0.00  194.00    55  40296.00      0.00 1097208  560128   0.21      0.00 139272.00      0.00       0  perf_experiment

# Time        UID       PID    %usr %system  %guest   %wait    %CPU   CPU  minflt/s  majflt/s     VSZ     RSS   %MEM   kB_rd/s   kB_wr/s kB_ccwr/s iodelay  Command
08:31:42 PM  1006    217792  116.00   77.00    0.00    0.00  193.00    55   6870.00      0.00 1097208  560184   0.21      0.00 132104.00      0.00       0  perf_experiment

# Time        UID       PID    %usr %system  %guest   %wait    %CPU   CPU  minflt/s  majflt/s     VSZ     RSS   %MEM   kB_rd/s   kB_wr/s kB_ccwr/s iodelay  Command
08:31:43 PM  1006    217792  119.00   73.00    0.00    0.00  192.00    55   5521.00      0.00 1097208  560232   0.21      0.00 139272.00      0.00       0  perf_experiment

# Time        UID       PID    %usr %system  %guest   %wait    %CPU   CPU  minflt/s  majflt/s     VSZ     RSS   %MEM   kB_rd/s   kB_wr/s kB_ccwr/s iodelay  Command
08:31:44 PM  1006    217792  102.00   94.00    0.00    0.00  196.00    55   7579.00      0.00 1097732  560808   0.21      0.00 151048.00      0.00       0  perf_experiment

# Time        UID       PID    %usr %system  %guest   %wait    %CPU   CPU  minflt/s  majflt/s     VSZ     RSS   %MEM   kB_rd/s   kB_wr/s kB_ccwr/s iodelay  Command
08:31:45 PM  1006    217792  106.00   53.00    0.00    0.00  159.00    55   6037.00      0.00 1097208  560312   0.21      0.00  86536.00      0.00       0  perf_experiment

# Time        UID       PID    %usr %system  %guest   %wait    %CPU   CPU  minflt/s  majflt/s     VSZ     RSS   %MEM   kB_rd/s   kB_wr/s kB_ccwr/s iodelay  Command
08:31:46 PM  1006    217792   94.00   28.00    0.00    0.00  122.00    55  10439.00      0.00 1107308  569808   0.22      0.00  24584.00      0.00       0  perf_experiment

# Time        UID       PID    %usr %system  %guest   %wait    %CPU   CPU  minflt/s  majflt/s     VSZ     RSS   %MEM   kB_rd/s   kB_wr/s kB_ccwr/s iodelay  Command
08:31:47 PM  1006    217792  103.00   60.00    0.00    0.00  163.00    56  21316.00      0.00 1112408  574616   0.22      0.00  80388.00      0.00       0  perf_experiment

# Time        UID       PID    %usr %system  %guest   %wait    %CPU   CPU  minflt/s  majflt/s     VSZ     RSS   %MEM   kB_rd/s   kB_wr/s kB_ccwr/s iodelay  Command
08:31:48 PM  1006    217792  101.00   74.00    0.00    0.00  175.00    56  26563.00      0.00 1114436  576452   0.22      0.00 103948.00      0.00       0  perf_experiment

# Time        UID       PID    %usr %system  %guest   %wait    %CPU   CPU  minflt/s  majflt/s     VSZ     RSS   %MEM   kB_rd/s   kB_wr/s kB_ccwr/s iodelay  Command
08:31:49 PM  1006    217792  104.00   67.00    0.00    0.00  171.00    56  25463.00      0.00 1115484  577584   0.22      0.00 100360.00      0.00       0  perf_experiment

# Time        UID       PID    %usr %system  %guest   %wait    %CPU   CPU  minflt/s  majflt/s     VSZ     RSS   %MEM   kB_rd/s   kB_wr/s kB_ccwr/s iodelay  Command
08:31:50 PM  1006    217792  109.00   67.00    0.00    0.00  176.00    56  26082.00      0.00 1114436  576972   0.22      0.00 106504.00      0.00       0  perf_experiment

# Time        UID       PID    %usr %system  %guest   %wait    %CPU   CPU  minflt/s  majflt/s     VSZ     RSS   %MEM   kB_rd/s   kB_wr/s kB_ccwr/s iodelay  Command
08:31:51 PM  1006    217792   92.00   36.00    0.00    0.00  128.00    56   3183.00      0.00 1112864  575620   0.22      0.00  35336.00      0.00       0  perf_experiment

# Time        UID       PID    %usr %system  %guest   %wait    %CPU   CPU  minflt/s  majflt/s     VSZ     RSS   %MEM   kB_rd/s   kB_wr/s kB_ccwr/s iodelay  Command
08:31:52 PM  1006    217792   93.00   27.00    0.00    0.00  120.00    56    285.00      0.00 1112864  575804   0.22      0.00  22024.00      0.00       0  perf_experiment

# Time        UID       PID    %usr %system  %guest   %wait    %CPU   CPU  minflt/s  majflt/s     VSZ     RSS   %MEM   kB_rd/s   kB_wr/s kB_ccwr/s iodelay  Command
08:31:53 PM  1006    217792   89.00   31.00    0.00    0.00  120.00    56   2123.00      0.00 1111860  581220   0.22      0.00  18952.00      0.00       0  perf_experiment

# Time        UID       PID    %usr %system  %guest   %wait    %CPU   CPU  minflt/s  majflt/s     VSZ     RSS   %MEM   kB_rd/s   kB_wr/s kB_ccwr/s iodelay  Command
08:31:54 PM  1006    217792   96.00   23.00    0.00    0.00  119.00    57    427.00      0.00 1111860  582424   0.22      0.00  19976.00      0.00       0  perf_experiment

# Time        UID       PID    %usr %system  %guest   %wait    %CPU   CPU  minflt/s  majflt/s     VSZ     RSS   %MEM   kB_rd/s   kB_wr/s kB_ccwr/s iodelay  Command
08:31:55 PM  1006    217792   92.00   27.00    0.00    0.00  119.00    57    136.00      0.00 1111860  582728   0.22      0.00  19976.00      0.00       0  perf_experiment

# Time        UID       PID    %usr %system  %guest   %wait    %CPU   CPU  minflt/s  majflt/s     VSZ     RSS   %MEM   kB_rd/s   kB_wr/s kB_ccwr/s iodelay  Command
08:31:56 PM  1006    217792   90.00   31.00    0.00    0.00  121.00    57    136.00      0.00 1111860  582560   0.22      0.00  18952.00      0.00       0  perf_experiment

# Time        UID       PID    %usr %system  %guest   %wait    %CPU   CPU  minflt/s  majflt/s     VSZ     RSS   %MEM   kB_rd/s   kB_wr/s kB_ccwr/s iodelay  Command
08:31:57 PM  1006    217792   89.00   33.00    0.00    0.00  122.00    57    166.00      0.00 1111860  582560   0.22      0.00  22024.00      0.00       0  perf_experiment

# Time        UID       PID    %usr %system  %guest   %wait    %CPU   CPU  minflt/s  majflt/s     VSZ     RSS   %MEM   kB_rd/s   kB_wr/s kB_ccwr/s iodelay  Command
08:31:58 PM  1006    217792   89.00   30.00    0.00    0.00  119.00    57     95.00      0.00 1111860  582560   0.22      0.00  17928.00      0.00       0  perf_experiment

# Time        UID       PID    %usr %system  %guest   %wait    %CPU   CPU  minflt/s  majflt/s     VSZ     RSS   %MEM   kB_rd/s   kB_wr/s kB_ccwr/s iodelay  Command
08:31:59 PM  1006    217792   91.00   30.00    0.00    0.00  121.00    57    137.00      0.00 1111860  582560   0.22      0.00  20488.00      0.00       0  perf_experiment

# Time        UID       PID    %usr %system  %guest   %wait    %CPU   CPU  minflt/s  majflt/s     VSZ     RSS   %MEM   kB_rd/s   kB_wr/s kB_ccwr/s iodelay  Command
08:32:00 PM  1006    217792   99.00   61.00    0.00    0.00  160.00    57  64542.00      0.00 1111860  580564   0.22      0.00  65032.00      0.00       0  perf_experiment

# Time        UID       PID    %usr %system  %guest   %wait    %CPU   CPU  minflt/s  majflt/s     VSZ     RSS   %MEM   kB_rd/s   kB_wr/s kB_ccwr/s iodelay  Command
08:32:01 PM  1006    217792   96.00   60.00    0.00    0.00  156.00    57   2498.00      0.00 1112384  581092   0.22      0.00  64008.00      0.00       0  perf_experiment

# Time        UID       PID    %usr %system  %guest   %wait    %CPU   CPU  minflt/s  majflt/s     VSZ     RSS   %MEM   kB_rd/s   kB_wr/s kB_ccwr/s iodelay  Command
08:32:02 PM  1006    217792   98.00   59.00    0.00    0.00  157.00    57   1364.00      0.00 1111860  580636   0.22      0.00  65544.00      0.00       0  perf_experiment

# Time        UID       PID    %usr %system  %guest   %wait    %CPU   CPU  minflt/s  majflt/s     VSZ     RSS   %MEM   kB_rd/s   kB_wr/s kB_ccwr/s iodelay  Command
08:32:03 PM  1006    217792   95.00   58.00    0.00    0.00  153.00    57  39059.00      0.00 1111860  580684   0.22      0.00  62472.00      0.00       0  perf_experiment

# Time        UID       PID    %usr %system  %guest   %wait    %CPU   CPU  minflt/s  majflt/s     VSZ     RSS   %MEM   kB_rd/s   kB_wr/s kB_ccwr/s iodelay  Command
08:32:04 PM  1006    217792  106.00   68.00    0.00    0.00  174.00    58   5854.00      0.00 1112384  581220   0.22      0.00  98596.00      0.00       0  perf_experiment

# Time        UID       PID    %usr %system  %guest   %wait    %CPU   CPU  minflt/s  majflt/s     VSZ     RSS   %MEM   kB_rd/s   kB_wr/s kB_ccwr/s iodelay  Command
08:32:05 PM  1006    217792   97.00   79.00    0.00    0.00  176.00    58   2444.00      0.00 1112384  580904   0.22      0.00  97000.00      0.00       0  perf_experiment

# Time        UID       PID    %usr %system  %guest   %wait    %CPU   CPU  minflt/s  majflt/s     VSZ     RSS   %MEM   kB_rd/s   kB_wr/s kB_ccwr/s iodelay  Command
08:32:06 PM  1006    217792   94.00   77.00    0.00    0.00  171.00    58    636.00      0.00 1111860  580768   0.22      0.00  96264.00      0.00       0  perf_experiment

# Time        UID       PID    %usr %system  %guest   %wait    %CPU   CPU  minflt/s  majflt/s     VSZ     RSS   %MEM   kB_rd/s   kB_wr/s kB_ccwr/s iodelay  Command
08:32:07 PM  1006    217792  110.00   58.00    0.00    0.00  168.00    58   1090.00      0.00 1111860  580788   0.22      0.00  85512.00      0.00       0  perf_experiment

# Time        UID       PID    %usr %system  %guest   %wait    %CPU   CPU  minflt/s  majflt/s     VSZ     RSS   %MEM   kB_rd/s   kB_wr/s kB_ccwr/s iodelay  Command
08:32:08 PM  1006    217792  100.00   93.00    0.00    0.00  193.00    58   6075.00      0.00 1112384  581280   0.22      0.00 131080.00      0.00       0  perf_experiment

# Time        UID       PID    %usr %system  %guest   %wait    %CPU   CPU  minflt/s  majflt/s     VSZ     RSS   %MEM   kB_rd/s   kB_wr/s kB_ccwr/s iodelay  Command
08:32:09 PM  1006    217792  101.00   91.00    0.00    0.00  192.00    59   3123.00      0.00 1111860  579516   0.22      0.00 131592.00      0.00       0  perf_experiment

# Time        UID       PID    %usr %system  %guest   %wait    %CPU   CPU  minflt/s  majflt/s     VSZ     RSS   %MEM   kB_rd/s   kB_wr/s kB_ccwr/s iodelay  Command
08:32:10 PM  1006    217792  112.00   80.00    0.00    0.00  192.00    59   7046.00      0.00 1112384  579676   0.22      0.00 133640.00      0.00       0  perf_experiment

# Time        UID       PID    %usr %system  %guest   %wait    %CPU   CPU  minflt/s  majflt/s     VSZ     RSS   %MEM   kB_rd/s   kB_wr/s kB_ccwr/s iodelay  Command
08:32:11 PM  1006    217792  108.00   88.00    0.00    0.00  196.00    59   6589.00      0.00 1112384  580068   0.22      0.00 144392.00      0.00       0  perf_experiment

# Time        UID       PID    %usr %system  %guest   %wait    %CPU   CPU  minflt/s  majflt/s     VSZ     RSS   %MEM   kB_rd/s   kB_wr/s kB_ccwr/s iodelay  Command
08:32:12 PM  1006    217792  113.00   78.00    0.00    0.00  191.00    59   5878.00      0.00 1111860  579648   0.22      0.00 132408.00      0.00       0  perf_experiment

# Time        UID       PID    %usr %system  %guest   %wait    %CPU   CPU  minflt/s  majflt/s     VSZ     RSS   %MEM   kB_rd/s   kB_wr/s kB_ccwr/s iodelay  Command
08:32:13 PM  1006    217792  102.00   49.00    0.00    0.00  151.00    59   4614.00      0.00 1111860  579676   0.22      0.00  71384.00      0.00       0  perf_experiment

# Time        UID       PID    %usr %system  %guest   %wait    %CPU   CPU  minflt/s  majflt/s     VSZ     RSS   %MEM   kB_rd/s   kB_wr/s kB_ccwr/s iodelay  Command
08:32:14 PM  1006    217792   95.00   25.00    0.00    0.00  120.00    59   9336.00      0.00 1121752  588740   0.22      0.00  23560.00      0.00       0  perf_experiment

# Time        UID       PID    %usr %system  %guest   %wait    %CPU   CPU  minflt/s  majflt/s     VSZ     RSS   %MEM   kB_rd/s   kB_wr/s kB_ccwr/s iodelay  Command
08:32:15 PM  1006    217792  103.96   56.44    0.00    0.00  160.40    60  20293.07      0.00 1124864  592184   0.22      0.00  77568.32      0.00       0  perf_experiment

# Time        UID       PID    %usr %system  %guest   %wait    %CPU   CPU  minflt/s  majflt/s     VSZ     RSS   %MEM   kB_rd/s   kB_wr/s kB_ccwr/s iodelay  Command
08:32:16 PM  1006    217792  104.00   68.00    0.00    0.00  172.00     0  23150.00      0.00 1124864  592220   0.22      0.00  92164.00      0.00       0  perf_experiment

# Time        UID       PID    %usr %system  %guest   %wait    %CPU   CPU  minflt/s  majflt/s     VSZ     RSS   %MEM   kB_rd/s   kB_wr/s kB_ccwr/s iodelay  Command
08:32:17 PM  1006    217792   96.00   65.00    0.00    0.00  161.00     0  18849.00      0.00 1124864  592508   0.22      0.00  75272.00      0.00       0  perf_experiment

# Time        UID       PID    %usr %system  %guest   %wait    %CPU   CPU  minflt/s  majflt/s     VSZ     RSS   %MEM   kB_rd/s   kB_wr/s kB_ccwr/s iodelay  Command
08:32:18 PM  1006    217792   96.00   64.00    0.00    0.00  160.00     0  17997.00      0.00 1124340  591980   0.22      0.00  78852.00      0.00       0  perf_experiment

# Time        UID       PID    %usr %system  %guest   %wait    %CPU   CPU  minflt/s  majflt/s     VSZ     RSS   %MEM   kB_rd/s   kB_wr/s kB_ccwr/s iodelay  Command
08:32:19 PM  1006    217792   98.00   52.00    0.00    0.00  150.00     0  10533.00      0.00 1123816  591760   0.22      0.00  65032.00      0.00       0  perf_experiment

# Time        UID       PID    %usr %system  %guest   %wait    %CPU   CPU  minflt/s  majflt/s     VSZ     RSS   %MEM   kB_rd/s   kB_wr/s kB_ccwr/s iodelay  Command
08:32:20 PM  1006    217792   99.00   19.00    0.00    0.00  118.00     0      3.00      0.00 1123816  591760   0.22      0.00  16392.00      0.00       0  perf_experiment

# Time        UID       PID    %usr %system  %guest   %wait    %CPU   CPU  minflt/s  majflt/s     VSZ     RSS   %MEM   kB_rd/s   kB_wr/s kB_ccwr/s iodelay  Command
08:32:21 PM  1006    217792   93.00   25.00    0.00    0.00  118.00     0      1.00      0.00 1123816  591760   0.22      0.00  16388.00      0.00       0  perf_experiment

# Time        UID       PID    %usr %system  %guest   %wait    %CPU   CPU  minflt/s  majflt/s     VSZ     RSS   %MEM   kB_rd/s   kB_wr/s kB_ccwr/s iodelay  Command
08:32:22 PM  1006    217792   94.00   23.00    0.00    0.00  117.00     0      1.00      0.00 1123816  591760   0.22      0.00  15364.00      0.00       0  perf_experiment

# Time        UID       PID    %usr %system  %guest   %wait    %CPU   CPU  minflt/s  majflt/s     VSZ     RSS   %MEM   kB_rd/s   kB_wr/s kB_ccwr/s iodelay  Command
08:32:23 PM  1006    217792   91.00   27.00    0.00    0.00  118.00     0      1.00      0.00 1123816  591760   0.22      0.00  13320.00      0.00       0  perf_experiment

# Time        UID       PID    %usr %system  %guest   %wait    %CPU   CPU  minflt/s  majflt/s     VSZ     RSS   %MEM   kB_rd/s   kB_wr/s kB_ccwr/s iodelay  Command
08:32:24 PM  1006    217792   88.00   29.00    0.00    0.00  117.00     0      1.00      0.00 1123816  591760   0.22      0.00  15368.00      0.00       0  perf_experiment

# Time        UID       PID    %usr %system  %guest   %wait    %CPU   CPU  minflt/s  majflt/s     VSZ     RSS   %MEM   kB_rd/s   kB_wr/s kB_ccwr/s iodelay  Command
08:32:25 PM  1006    217792   96.00   21.00    0.00    0.00  117.00     1      1.00      0.00 1123816  591760   0.22      0.00  14856.00      0.00       0  perf_experiment

# Time        UID       PID    %usr %system  %guest   %wait    %CPU   CPU  minflt/s  majflt/s     VSZ     RSS   %MEM   kB_rd/s   kB_wr/s kB_ccwr/s iodelay  Command
08:32:26 PM  1006    217792   93.00   24.00    0.00    0.00  117.00     1     10.00      0.00 1123816  591760   0.22      0.00  14344.00      0.00       0  perf_experiment

# Time        UID       PID    %usr %system  %guest   %wait    %CPU   CPU  minflt/s  majflt/s     VSZ     RSS   %MEM   kB_rd/s   kB_wr/s kB_ccwr/s iodelay  Command
08:32:27 PM  1006    217792   89.00   28.00    0.00    0.00  117.00     1     70.00      0.00 1123816  591760   0.22      0.00  14344.00      0.00       0  perf_experiment

# Time        UID       PID    %usr %system  %guest   %wait    %CPU   CPU  minflt/s  majflt/s     VSZ     RSS   %MEM   kB_rd/s   kB_wr/s kB_ccwr/s iodelay  Command
08:32:28 PM  1006    217792   95.00   24.00    0.00    0.00  119.00     1    262.00      0.00 1125164  592256   0.22      0.00  15880.00      0.00       0  perf_experiment

# Time        UID       PID    %usr %system  %guest   %wait    %CPU   CPU  minflt/s  majflt/s     VSZ     RSS   %MEM   kB_rd/s   kB_wr/s kB_ccwr/s iodelay  Command
08:32:29 PM  1006    217792   95.00   19.00    0.00    0.00  114.00     1    105.00      0.00 1125164  592256   0.22      0.00  13320.00      0.00       0  perf_experiment

# Time        UID       PID    %usr %system  %guest   %wait    %CPU   CPU  minflt/s  majflt/s     VSZ     RSS   %MEM   kB_rd/s   kB_wr/s kB_ccwr/s iodelay  Command
08:32:30 PM  1006    217792   87.00   30.00    0.00    0.00  117.00     1  64184.00      0.00 1125164  593776   0.23      0.00  12296.00      0.00       0  perf_experiment

# Time        UID       PID    %usr %system  %guest   %wait    %CPU   CPU  minflt/s  majflt/s     VSZ     RSS   %MEM   kB_rd/s   kB_wr/s kB_ccwr/s iodelay  Command
08:32:31 PM  1006    217792   96.00   31.00    0.00    0.00  127.00     1  42011.00      0.00 1125164  594264   0.23      0.00  22536.00      0.00       0  perf_experiment

# Time        UID       PID    %usr %system  %guest   %wait    %CPU   CPU  minflt/s  majflt/s     VSZ     RSS   %MEM   kB_rd/s   kB_wr/s kB_ccwr/s iodelay  Command
08:32:32 PM  1006    217792   94.00   47.00    0.00    0.00  141.00    63   4335.00      0.00 1125164  594392   0.23      0.00  44040.00      0.00       0  perf_experiment

# Time        UID       PID    %usr %system  %guest   %wait    %CPU   CPU  minflt/s  majflt/s     VSZ     RSS   %MEM   kB_rd/s   kB_wr/s kB_ccwr/s iodelay  Command
08:32:33 PM  1006    217792   84.00   62.00    0.00    0.00  146.00    63   1811.00      0.00 1125164  594412   0.23      0.00  48136.00      0.00       0  perf_experiment

# Time        UID       PID    %usr %system  %guest   %wait    %CPU   CPU  minflt/s  majflt/s     VSZ     RSS   %MEM   kB_rd/s   kB_wr/s kB_ccwr/s iodelay  Command
08:32:34 PM  1006    217792   91.00   53.00    0.00    0.00  144.00    63    505.00      0.00 1125164  594432   0.23      0.00  51988.00      0.00       0  perf_experiment

# Time        UID       PID    %usr %system  %guest   %wait    %CPU   CPU  minflt/s  majflt/s     VSZ     RSS   %MEM   kB_rd/s   kB_wr/s kB_ccwr/s iodelay  Command
08:32:35 PM  1006    217792   93.00   64.00    0.00    0.00  157.00    63    733.00      0.00 1125164  594488   0.23      0.00  68348.00      0.00       0  perf_experiment

# Time        UID       PID    %usr %system  %guest   %wait    %CPU   CPU  minflt/s  majflt/s     VSZ     RSS   %MEM   kB_rd/s   kB_wr/s kB_ccwr/s iodelay  Command
08:32:36 PM  1006    217792   94.00   78.00    0.00    0.00  172.00    63  30873.00      0.00 1125164  594784   0.23      0.00  90120.00      0.00       0  perf_experiment

# Time        UID       PID    %usr %system  %guest   %wait    %CPU   CPU  minflt/s  majflt/s     VSZ     RSS   %MEM   kB_rd/s   kB_wr/s kB_ccwr/s iodelay  Command