4,Rocks,1,5000000,2500000,512,2048,136937,4381569


resource usage stats

Linux 5.4.0-42-generic (arcon1) 	10/25/2020 	_x86_64_	(64 CPU)

# Time        UID       PID    %usr %system  %guest   %wait    %CPU   CPU  minflt/s  majflt/s     VSZ     RSS   %MEM   kB_rd/s   kB_wr/s kB_ccwr/s iodelay  Command
07:46:42 AM  1006    220645   76.24   18.81    0.00    0.00   95.05    46  60366.34      0.00  604496  150656   0.06  14423.76 106637.62      0.00      21  perf_experiment

# Time        UID       PID    %usr %system  %guest   %wait    %CPU   CPU  minflt/s  majflt/s     VSZ     RSS   %MEM   kB_rd/s   kB_wr/s kB_ccwr/s iodelay  Command
07:46:43 AM  1006    220645   27.00   11.00    0.00    0.00   38.00    46  12348.00      0.00  629152  173992   0.07  39776.00  53812.00      0.00      71  perf_experiment

# Time        UID       PID    %usr %system  %guest   %wait    %CPU   CPU  minflt/s  majflt/s     VSZ     RSS   %MEM   kB_rd/s   kB_wr/s kB_ccwr/s iodelay  Command
07:46:44 AM  1006    220645   49.00   22.00    0.00    0.00   71.00    46  15091.00      0.00  604576  154728   0.06 108460.00 151292.00      0.00      59  perf_experiment

# Time        UID       PID    %usr %system  %guest   %wait    %CPU   CPU  minflt/s  majflt/s     VSZ     RSS   %MEM   kB_rd/s   kB_wr/s kB_ccwr/s iodelay  Command
07:46:45 AM  1006    220645   57.00   30.00    0.00    0.00   87.00    46   6391.00      0.00  629148  179436   0.07  81796.00 165492.00      0.00      51  perf_experiment

# Time        UID       PID    %usr %system  %guest   %wait    %CPU   CPU  minflt/s  majflt/s     VSZ     RSS   %MEM   kB_rd/s   kB_wr/s kB_ccwr/s iodelay  Command
07:46:46 AM  1006    220645   16.00    4.00    0.00    0.00   20.00    46    510.00      0.00  629148  179688   0.07  43196.00      0.00      0.00      79  perf_experiment

# Time        UID       PID    %usr %system  %guest   %wait    %CPU   CPU  minflt/s  majflt/s     VSZ     RSS   %MEM   kB_rd/s   kB_wr/s kB_ccwr/s iodelay  Command
07:46:47 AM  1006    220645   17.00   12.00    0.00    0.00   29.00    47    511.00      0.00  604572  157172   0.06  42452.00  53808.00      0.00      79  perf_experiment

# Time        UID       PID    %usr %system  %guest   %wait    %CPU   CPU  minflt/s  majflt/s     VSZ     RSS   %MEM   kB_rd/s   kB_wr/s kB_ccwr/s iodelay  Command
07:46:48 AM  1006    220645   15.00    6.00    0.00    0.00   21.00    47      0.00      0.00  604572  157172   0.06  43052.00      0.00      0.00      79  perf_experiment

# Time        UID       PID    %usr %system  %guest   %wait    %CPU   CPU  minflt/s  majflt/s     VSZ     RSS   %MEM   kB_rd/s   kB_wr/s kB_ccwr/s iodelay  Command
07:46:49 AM  1006    220645   18.00    4.00    0.00    0.00   22.00    47   1347.00      0.00  612764  162452   0.06  43032.00      0.00      0.00      78  perf_experiment

# Time        UID       PID    %usr %system  %guest   %wait    %CPU   CPU  minflt/s  majflt/s     VSZ     RSS   %MEM   kB_rd/s   kB_wr/s kB_ccwr/s iodelay  Command
07:46:50 AM  1006    220645   21.00   10.00    0.00    0.00   31.00    47   4254.00      0.00  629148  179612   0.07  42648.00  53832.00      0.00      77  perf_experiment

# Time        UID       PID    %usr %system  %guest   %wait    %CPU   CPU  minflt/s  majflt/s     VSZ     RSS   %MEM   kB_rd/s   kB_wr/s kB_ccwr/s iodelay  Command
07:46:51 AM  1006    220645   29.00    8.00    0.00    0.00   37.00    47  13646.00      0.00  629148  181732   0.07  35012.00      0.00      0.00      63  perf_experiment

# Time        UID       PID    %usr %system  %guest   %wait    %CPU   CPU  minflt/s  majflt/s     VSZ     RSS   %MEM   kB_rd/s   kB_wr/s kB_ccwr/s iodelay  Command
07:46:52 AM  1006    220645   76.00   51.00    0.00    0.00  127.00     0  10008.00      0.00  612736  162472   0.06 119200.00 295136.00      0.00      34  perf_experiment

# Time        UID       PID    %usr %system  %guest   %wait    %CPU   CPU  minflt/s  majflt/s     VSZ     RSS   %MEM   kB_rd/s   kB_wr/s kB_ccwr/s iodelay  Command
07:46:53 AM  1006    220645   74.00   45.00    0.00    0.00  119.00     0  26953.00      0.00  637312  189492   0.07  52040.00 230712.00      0.00      40  perf_experiment

# Time        UID       PID    %usr %system  %guest   %wait    %CPU   CPU  minflt/s  majflt/s     VSZ     RSS   %MEM   kB_rd/s   kB_wr/s kB_ccwr/s iodelay  Command
07:46:54 AM  1006    220645   13.00    5.00    0.00    0.00   18.00     1    189.00      0.00  637312  189492   0.07  45408.00      0.00      0.00      82  perf_experiment

# Time        UID       PID    %usr %system  %guest   %wait    %CPU   CPU  minflt/s  majflt/s     VSZ     RSS   %MEM   kB_rd/s   kB_wr/s kB_ccwr/s iodelay  Command
07:46:55 AM  1006    220645   16.00    9.00    0.00    0.00   25.00     1    223.00      0.00  602048  156396   0.06  45340.00  53812.00      0.00      82  perf_experiment

# Time        UID       PID    %usr %system  %guest   %wait    %CPU   CPU  minflt/s  majflt/s     VSZ     RSS   %MEM   kB_rd/s   kB_wr/s kB_ccwr/s iodelay  Command
07:46:56 AM  1006    220645   11.00    6.00    0.00    0.00   17.00     1      0.00      0.00  602048  156396   0.06  45372.00      0.00      0.00      83  perf_experiment

# Time        UID       PID    %usr %system  %guest   %wait    %CPU   CPU  minflt/s  majflt/s     VSZ     RSS   %MEM   kB_rd/s   kB_wr/s kB_ccwr/s iodelay  Command
07:46:57 AM  1006    220645    9.00    7.00    0.00    0.00   16.00     1   1091.00      0.00  610240  160388   0.06  52036.00      0.00      0.00      83  perf_experiment

# Time        UID       PID    %usr %system  %guest   %wait    %CPU   CPU  minflt/s  majflt/s     VSZ     RSS   %MEM   kB_rd/s   kB_wr/s kB_ccwr/s iodelay  Command
07:46:58 AM  1006    220645   11.00    5.00    0.00    0.00   16.00     1   3492.00      0.00  626624  174380   0.07  46416.00      0.00      0.00      83  perf_experiment

# Time        UID       PID    %usr %system  %guest   %wait    %CPU   CPU  minflt/s  majflt/s     VSZ     RSS   %MEM   kB_rd/s   kB_wr/s kB_ccwr/s iodelay  Command
07:46:59 AM  1006    220645   13.00   12.00    0.00    0.00   25.00     1   3099.00      0.00  634816  186788   0.07  46392.00  53824.00      0.00      84  perf_experiment

# Time        UID       PID    %usr %system  %guest   %wait    %CPU   CPU  minflt/s  majflt/s     VSZ     RSS   %MEM   kB_rd/s   kB_wr/s kB_ccwr/s iodelay  Command
07:47:00 AM  1006    220645    9.00    7.00    0.00    0.00   16.00     1      0.00      0.00  634816  186788   0.07  46356.00      0.00      0.00      84  perf_experiment

# Time        UID       PID    %usr %system  %guest   %wait    %CPU   CPU  minflt/s  majflt/s     VSZ     RSS   %MEM   kB_rd/s   kB_wr/s kB_ccwr/s iodelay  Command
07:47:01 AM  1006    220645   11.00    5.00    0.00    0.00   16.00     1      0.00      0.00  634816  186788   0.07  46256.00      0.00      0.00      83  perf_experiment

# Time        UID       PID    %usr %system  %guest   %wait    %CPU   CPU  minflt/s  majflt/s     VSZ     RSS   %MEM   kB_rd/s   kB_wr/s kB_ccwr/s iodelay  Command
07:47:02 AM  1006    220645   12.00    4.00    0.00    0.00   16.00     1    510.00      0.00  634816  188900   0.07  46004.00      0.00      0.00      83  perf_experiment

# Time        UID       PID    %usr %system  %guest   %wait    %CPU   CPU  minflt/s  majflt/s     VSZ     RSS   %MEM   kB_rd/s   kB_wr/s kB_ccwr/s iodelay  Command
07:47:03 AM  1006    220645   18.00   13.00    0.00    0.00   31.00     1  20510.00      0.00  602048  157216   0.06  55232.00  68120.00      0.00      82  perf_experiment

# Time        UID       PID    %usr %system  %guest   %wait    %CPU   CPU  minflt/s  majflt/s     VSZ     RSS   %MEM   kB_rd/s   kB_wr/s kB_ccwr/s iodelay  Command
07:47:04 AM  1006    220645   93.00   66.00    0.00    0.00  159.00     1   5038.00      0.00  618388  168232   0.06 128332.00 380292.00      0.00      27  perf_experiment

# Time        UID       PID    %usr %system  %guest   %wait    %CPU   CPU  minflt/s  majflt/s     VSZ     RSS   %MEM   kB_rd/s   kB_wr/s kB_ccwr/s iodelay  Command
07:47:05 AM  1006    220645   35.00   21.00    0.00    0.00   56.00     1   5217.00      0.00  634772  188468   0.07  54448.00  95688.00      0.00      68  perf_experiment

# Time        UID       PID    %usr %system  %guest   %wait    %CPU   CPU  minflt/s  majflt/s     VSZ     RSS   %MEM   kB_rd/s   kB_wr/s kB_ccwr/s iodelay  Command
07:47:06 AM  1006    220645   12.00    8.00    0.00    0.00   20.00     1      0.00      0.00  634772  188468   0.07  59212.00      0.00      0.00      80  perf_experiment

# Time        UID       PID    %usr %system  %guest   %wait    %CPU   CPU  minflt/s  majflt/s     VSZ     RSS   %MEM   kB_rd/s   kB_wr/s kB_ccwr/s iodelay  Command
07:47:07 AM  1006    220645   12.00    7.00    0.00    0.00   19.00     2      0.00      0.00  634772  188468   0.07  59120.00      0.00      0.00      80  perf_experiment

# Time        UID       PID    %usr %system  %guest   %wait    %CPU   CPU  minflt/s  majflt/s     VSZ     RSS   %MEM   kB_rd/s   kB_wr/s kB_ccwr/s iodelay  Command
07:47:08 AM  1006    220645   17.00   12.00    0.00    0.00   29.00     2    510.00      0.00  634772  190572   0.07  58368.00  53820.00      0.00      80  perf_experiment

# Time        UID       PID    %usr %system  %guest   %wait    %CPU   CPU  minflt/s  majflt/s     VSZ     RSS   %MEM   kB_rd/s   kB_wr/s kB_ccwr/s iodelay  Command
07:47:09 AM  1006    220645   15.00    5.00    0.00    0.00   20.00     2      0.00      0.00  634772  190572   0.07  58936.00      0.00      0.00      79  perf_experiment

# Time        UID       PID    %usr %system  %guest   %wait    %CPU   CPU  minflt/s  majflt/s     VSZ     RSS   %MEM   kB_rd/s   kB_wr/s kB_ccwr/s iodelay  Command
07:47:10 AM  1006    220645   12.00    7.00    0.00    0.00   19.00     2      0.00      0.00  634772  190572   0.07  54364.00      0.00      0.00      80  perf_experiment

# Time        UID       PID    %usr %system  %guest   %wait    %CPU   CPU  minflt/s  majflt/s     VSZ     RSS   %MEM   kB_rd/s   kB_wr/s kB_ccwr/s iodelay  Command
07:47:11 AM  1006    220645   18.00   10.00    0.00    0.00   28.00     3      0.00      0.00  634772  190572   0.07  51244.00  53812.00      0.00      82  perf_experiment

# Time        UID       PID    %usr %system  %guest   %wait    %CPU   CPU  minflt/s  majflt/s     VSZ     RSS   %MEM   kB_rd/s   kB_wr/s kB_ccwr/s iodelay  Command
07:47:12 AM  1006    220645   12.00    7.00    0.00    0.00   19.00     3      0.00      0.00  634772  190572   0.07  50692.00      0.00      0.00      80  perf_experiment

# Time        UID       PID    %usr %system  %guest   %wait    %CPU   CPU  minflt/s  majflt/s     VSZ     RSS   %MEM   kB_rd/s   kB_wr/s kB_ccwr/s iodelay  Command
07:47:13 AM  1006    220645   17.00    6.00    0.00    0.00   23.00     4      0.00      0.00  634772  190572   0.07  48756.00      0.00      0.00      76  perf_experiment

# Time        UID       PID    %usr %system  %guest   %wait    %CPU   CPU  minflt/s  majflt/s     VSZ     RSS   %MEM   kB_rd/s   kB_wr/s kB_ccwr/s iodelay  Command
07:47:14 AM  1006    220645   57.00   31.00    0.00    0.00   88.00     4    337.00      0.00  634772  191596   0.07  80972.00 171644.00      0.00      48  perf_experiment

# Time        UID       PID    %usr %system  %guest   %wait    %CPU   CPU  minflt/s  majflt/s     VSZ     RSS   %MEM   kB_rd/s   kB_wr/s kB_ccwr/s iodelay  Command
07:47:15 AM  1006    220645  121.00   68.00    0.00    0.00  189.00     4  22878.00      0.00  634772  192112   0.07  79980.00 382724.00      0.00       5  perf_experiment

# Time        UID       PID    %usr %system  %guest   %wait    %CPU   CPU  minflt/s  majflt/s     VSZ     RSS   %MEM   kB_rd/s   kB_wr/s kB_ccwr/s iodelay  Command
07:47:16 AM  1006    220645   48.00   69.00    0.00    0.00  117.00     4   8551.00      0.00  634772  194884   0.07 231388.00 331128.00      0.00      71  perf_experiment

# Time        UID       PID    %usr %system  %guest   %wait    %CPU   CPU  minflt/s  majflt/s     VSZ     RSS   %MEM   kB_rd/s   kB_wr/s kB_ccwr/s iodelay  Command
07:47:17 AM  1006    220645   13.00    7.00    0.00    0.00   20.00     4   4787.00      0.00  634772  194884   0.07  58316.00      0.00      0.00      79  perf_experiment

# Time        UID       PID    %usr %system  %guest   %wait    %CPU   CPU  minflt/s  majflt/s     VSZ     RSS   %MEM   kB_rd/s   kB_wr/s kB_ccwr/s iodelay  Command
07:47:18 AM  1006    220645   20.00    8.00    0.00    0.00   28.00     5  10426.00      0.00  634772  194884   0.07  57032.00  53820.00      0.00      80  perf_experiment

# Time        UID       PID    %usr %system  %guest   %wait    %CPU   CPU  minflt/s  majflt/s     VSZ     RSS   %MEM   kB_rd/s   kB_wr/s kB_ccwr/s iodelay  Command
07:47:19 AM  1006    220645   13.00    8.00    0.00    0.00   21.00     5     56.00      0.00  634772  194884   0.07  58376.00      0.00      0.00      80  perf_experiment

# Time        UID       PID    %usr %system  %guest   %wait    %CPU   CPU  minflt/s  majflt/s     VSZ     RSS   %MEM   kB_rd/s   kB_wr/s kB_ccwr/s iodelay  Command
07:47:20 AM  1006    220645   12.00    6.00    0.00    0.00   18.00     5     29.00      0.00  634772  194884   0.07  59188.00      0.00      0.00      81  perf_experiment

# Time        UID       PID    %usr %system  %guest   %wait    %CPU   CPU  minflt/s  majflt/s     VSZ     RSS   %MEM   kB_rd/s   kB_wr/s kB_ccwr/s iodelay  Command
07:47:21 AM  1006    220645   13.00    7.00    0.00    0.00   20.00     5     39.00      0.00  634772  194884   0.07  56924.00  10524.00      0.00      82  perf_experiment

# Time        UID       PID    %usr %system  %guest   %wait    %CPU   CPU  minflt/s  majflt/s     VSZ     RSS   %MEM   kB_rd/s   kB_wr/s kB_ccwr/s iodelay  Command
07:47:22 AM  1006    220645   15.00   10.00    0.00    0.00   25.00     5    122.00      0.00  634772  194884   0.07  56100.00  43312.00      0.00      81  perf_experiment

# Time        UID       PID    %usr %system  %guest   %wait    %CPU   CPU  minflt/s  majflt/s     VSZ     RSS   %MEM   kB_rd/s   kB_wr/s kB_ccwr/s iodelay  Command
07:47:23 AM  1006    220645   15.00    4.00    0.00    0.00   19.00     5      1.00      0.00  634772  194884   0.07  55916.00      0.00      0.00      80  perf_experiment

# Time        UID       PID    %usr %system  %guest   %wait    %CPU   CPU  minflt/s  majflt/s     VSZ     RSS   %MEM   kB_rd/s   kB_wr/s kB_ccwr/s iodelay  Command
07:47:24 AM  1006    220645   13.00    8.00    0.00    0.00   21.00     6      0.00      0.00  634772  194884   0.07  55524.00      0.00      0.00      79  perf_experiment

# Time        UID       PID    %usr %system  %guest   %wait    %CPU   CPU  minflt/s  majflt/s     VSZ     RSS   %MEM   kB_rd/s   kB_wr/s kB_ccwr/s iodelay  Command
07:47:25 AM  1006    220645   12.00    9.00    0.00    0.00   21.00     5      0.00      0.00  634772  194884   0.07  54304.00      0.00      0.00      79  perf_experiment

# Time        UID       PID    %usr %system  %guest   %wait    %CPU   CPU  minflt/s  majflt/s     VSZ     RSS   %MEM   kB_rd/s   kB_wr/s kB_ccwr/s iodelay  Command
07:47:26 AM  1006    220645   69.00   50.00    0.00    0.00  119.00     5    338.00      0.00  634772  194884   0.07 133792.00 338152.00      0.00      50  perf_experiment

# Time        UID       PID    %usr %system  %guest   %wait    %CPU   CPU  minflt/s  majflt/s     VSZ     RSS   %MEM   kB_rd/s   kB_wr/s kB_ccwr/s iodelay  Command
07:47:27 AM  1006    220645   75.00   66.00    0.00    0.00  141.00     5  13701.00      0.00  634772  195664   0.07 172684.00 333292.00      0.00      45  perf_experiment

# Time        UID       PID    %usr %system  %guest   %wait    %CPU   CPU  minflt/s  majflt/s     VSZ     RSS   %MEM   kB_rd/s   kB_wr/s kB_ccwr/s iodelay  Command
07:47:28 AM  1006    220645   44.00   51.00    0.00    0.00   95.00    12  17754.00      0.00  634772  196172   0.07 192952.00 299444.00      0.00      76  perf_experiment

# Time        UID       PID    %usr %system  %guest   %wait    %CPU   CPU  minflt/s  majflt/s     VSZ     RSS   %MEM   kB_rd/s   kB_wr/s kB_ccwr/s iodelay  Command
07:47:29 AM  1006    220645   12.00    9.00    0.00    0.00   21.00    12   4843.00      0.00  634772  196172   0.07  55044.00      0.00      0.00      80  perf_experiment

# Time        UID       PID    %usr %system  %guest   %wait    %CPU   CPU  minflt/s  majflt/s     VSZ     RSS   %MEM   kB_rd/s   kB_wr/s kB_ccwr/s iodelay  Command
07:47:30 AM  1006    220645   13.00    7.00    0.00    0.00   20.00    12   4788.00      0.00  634772  196172   0.07  54892.00      0.00      0.00      79  perf_experiment

# Time        UID       PID    %usr %system  %guest   %wait    %CPU   CPU  minflt/s  majflt/s     VSZ     RSS   %MEM   kB_rd/s   kB_wr/s kB_ccwr/s iodelay  Command
07:47:31 AM  1006    220645   17.00   13.00    0.00    0.00   30.00    12   5067.00      0.00  634772  196172   0.07  54356.00  53824.00      0.00      80  perf_experiment

# Time        UID       PID    %usr %system  %guest   %wait    %CPU   CPU  minflt/s  majflt/s     VSZ     RSS   %MEM   kB_rd/s   kB_wr/s kB_ccwr/s iodelay  Command
07:47:32 AM  1006    220645   15.00    5.00    0.00    0.00   20.00    12     68.00      0.00  634772  196172   0.07  54884.00      0.00      0.00      79  perf_experiment

# Time        UID       PID    %usr %system  %guest   %wait    %CPU   CPU  minflt/s  majflt/s     VSZ     RSS   %MEM   kB_rd/s   kB_wr/s kB_ccwr/s iodelay  Command
07:47:33 AM  1006    220645   12.00    8.00    0.00    0.00   20.00    12     43.00      0.00  634772  196172   0.07  55244.00      0.00      0.00      80  perf_experiment

# Time        UID       PID    %usr %system  %guest   %wait    %CPU   CPU  minflt/s  majflt/s     VSZ     RSS   %MEM   kB_rd/s   kB_wr/s kB_ccwr/s iodelay  Command
07:47:34 AM  1006    220645   15.00    5.00    0.00    0.00   20.00    12     23.00      0.00  634772  196172   0.07  53188.00      0.00      0.00      79  perf_experiment

# Time        UID       PID    %usr %system  %guest   %wait    %CPU   CPU  minflt/s  majflt/s     VSZ     RSS   %MEM   kB_rd/s   kB_wr/s kB_ccwr/s iodelay  Command
07:47:35 AM  1006    220645   17.00   14.00    0.00    0.00   31.00    12     94.00      0.00  634772  196172   0.07  51016.00  53828.00      0.00      78  perf_experiment

# Time        UID       PID    %usr %system  %guest   %wait    %CPU   CPU  minflt/s  majflt/s     VSZ     RSS   %MEM   kB_rd/s   kB_wr/s kB_ccwr/s iodelay  Command
07:47:36 AM  1006    220645   16.00    7.00    0.00    0.00   23.00    12      0.00      0.00  634772  196172   0.07  50400.00      0.00      0.00      75  perf_experiment

# Time        UID       PID    %usr %system  %guest   %wait    %CPU   CPU  minflt/s  majflt/s     VSZ     RSS   %MEM   kB_rd/s   kB_wr/s kB_ccwr/s iodelay  Command
07:47:37 AM  1006    220645   21.00   10.00    0.00    0.00   31.00    12      0.00      0.00  634772  196172   0.07  48512.00      0.00      0.00      70  perf_experiment

# Time        UID       PID    %usr %system  %guest   %wait    %CPU   CPU  minflt/s  majflt/s     VSZ     RSS   %MEM   kB_rd/s   kB_wr/s kB_ccwr/s iodelay  Command
07:47:38 AM  1006    220645   83.00   44.00    0.00    0.00  127.00    13    304.00      0.00  618316  180248   0.07 110848.00 271508.00      0.00      31  perf_experiment

# Time        UID       PID    %usr %system  %guest   %wait    %CPU   CPU  minflt/s  majflt/s     VSZ     RSS   %MEM   kB_rd/s   kB_wr/s kB_ccwr/s iodelay  Command
07:47:39 AM  1006    220645   98.00   63.00    0.00    0.00  161.00    15  23998.00      0.00  634664  195200   0.07 100092.00 337508.00      0.00      31  perf_experiment

# Time        UID       PID    %usr %system  %guest   %wait    %CPU   CPU  minflt/s  majflt/s     VSZ     RSS   %MEM   kB_rd/s   kB_wr/s kB_ccwr/s iodelay  Command
07:47:40 AM  1006    220645   51.00   59.00    0.00    0.00  110.00    33    367.00      0.00  634664  196316   0.07 257444.00 352552.00      0.00      75  perf_experiment

# Time        UID       PID    %usr %system  %guest   %wait    %CPU   CPU  minflt/s  majflt/s     VSZ     RSS   %MEM   kB_rd/s   kB_wr/s kB_ccwr/s iodelay  Command
07:47:41 AM  1006    220645   31.00   28.00    0.00    0.00   59.00    33    147.00      0.00  634664  196692   0.07 124692.00 146336.00      0.00      78  perf_experiment

# Time        UID       PID    %usr %system  %guest   %wait    %CPU   CPU  minflt/s  majflt/s     VSZ     RSS   %MEM   kB_rd/s   kB_wr/s kB_ccwr/s iodelay  Command
07:47:42 AM  1006    220645   21.00   10.00    0.00    0.00   31.00    33     29.00      0.00  634664  196692   0.07  53364.00  53808.00      0.00      80  perf_experiment

# Time        UID       PID    %usr %system  %guest   %wait    %CPU   CPU  minflt/s  majflt/s     VSZ     RSS   %MEM   kB_rd/s   kB_wr/s kB_ccwr/s iodelay  Command
07:47:43 AM  1006    220645   13.00    7.00    0.00    0.00   20.00    33    542.00      0.00  634664  198580   0.08  53660.00      0.00      0.00      79  perf_experiment

# Time        UID       PID    %usr %system  %guest   %wait    %CPU   CPU  minflt/s  majflt/s     VSZ     RSS   %MEM   kB_rd/s   kB_wr/s kB_ccwr/s iodelay  Command
07:47:44 AM  1006    220645   12.00    7.00    0.00    0.00   19.00    33     37.00      0.00  634664  198736   0.08  56456.00      0.00      0.00      80  perf_experiment

# Time        UID       PID    %usr %system  %guest   %wait    %CPU   CPU  minflt/s  majflt/s     VSZ     RSS   %MEM   kB_rd/s   kB_wr/s kB_ccwr/s iodelay  Command
07:47:45 AM  1006    220645   14.00    4.00    0.00    0.00   18.00    33      4.00      0.00  634664  198736   0.08  53616.00      0.00      0.00      81  perf_experiment

# Time        UID       PID    %usr %system  %guest   %wait    %CPU   CPU  minflt/s  majflt/s     VSZ     RSS   %MEM   kB_rd/s   kB_wr/s kB_ccwr/s iodelay  Command
07:47:46 AM  1006    220645   16.00   12.00    0.00    0.00   28.00    33      0.00      0.00  634664  198736   0.08  52032.00  53836.00      0.00      81  perf_experiment

# Time        UID       PID    %usr %system  %guest   %wait    %CPU   CPU  minflt/s  majflt/s     VSZ     RSS   %MEM   kB_rd/s   kB_wr/s kB_ccwr/s iodelay  Command
07:47:47 AM  1006    220645   13.00    6.00    0.00    0.00   19.00    33      8.00      0.00  634664  198736   0.08  52160.00      0.00      0.00      80  perf_experiment

# Time        UID       PID    %usr %system  %guest   %wait    %CPU   CPU  minflt/s  majflt/s     VSZ     RSS   %MEM   kB_rd/s   kB_wr/s kB_ccwr/s iodelay  Command
07:47:48 AM  1006    220645   14.00    6.00    0.00    0.00   20.00    33      0.00      0.00  634664  198736   0.08  52208.00      0.00      0.00      80  perf_experiment

# Time        UID       PID    %usr %system  %guest   %wait    %CPU   CPU  minflt/s  majflt/s     VSZ     RSS   %MEM   kB_rd/s   kB_wr/s kB_ccwr/s iodelay  Command
07:47:49 AM  1006    220645   15.00    7.00    0.00    0.00   22.00    33      0.00      0.00  634664  198736   0.08  51544.00      0.00      0.00      78  perf_experiment

# Time        UID       PID    %usr %system  %guest   %wait    %CPU   CPU  minflt/s  majflt/s     VSZ     RSS   %MEM   kB_rd/s   kB_wr/s kB_ccwr/s iodelay  Command
07:47:50 AM  1006    220645   33.00   25.00    0.00    0.00   58.00    33      5.00      0.00  634664  198736   0.08  72048.00 126800.00      0.00      67  perf_experiment

# Time        UID       PID    %usr %system  %guest   %wait    %CPU   CPU  minflt/s  majflt/s     VSZ     RSS   %MEM   kB_rd/s   kB_wr/s kB_ccwr/s iodelay  Command
07:47:51 AM  1006    220645  105.00   67.00    0.00    0.00  172.00    33  16130.00      0.00  634664  198736   0.08 110576.00 362408.00      0.00      15  perf_experiment

# Time        UID       PID    %usr %system  %guest   %wait    %CPU   CPU  minflt/s  majflt/s     VSZ     RSS   %MEM   kB_rd/s   kB_wr/s kB_ccwr/s iodelay  Command
07:47:52 AM  1006    220645   62.00   55.00    0.00    0.00  117.00    33  27326.00      0.00  634664  200544   0.08 205052.00 338576.00      0.00      71  perf_experiment

# Time        UID       PID    %usr %system  %guest   %wait    %CPU   CPU  minflt/s  majflt/s     VSZ     RSS   %MEM   kB_rd/s   kB_wr/s kB_ccwr/s iodelay  Command
07:47:53 AM  1006    220645   48.00   45.00    0.00    0.00   93.00    33   6922.00      0.00  634664  200992   0.08 235024.00 309356.00      0.00      78  perf_experiment

# Time        UID       PID    %usr %system  %guest   %wait    %CPU   CPU  minflt/s  majflt/s     VSZ     RSS   %MEM   kB_rd/s   kB_wr/s kB_ccwr/s iodelay  Command
07:47:54 AM  1006    220645   14.00    6.00    0.00    0.00   20.00    34   4885.00      0.00  634664  200992   0.08  54604.00      0.00      0.00      79  perf_experiment

# Time        UID       PID    %usr %system  %guest   %wait    %CPU   CPU  minflt/s  majflt/s     VSZ     RSS   %MEM   kB_rd/s   kB_wr/s kB_ccwr/s iodelay  Command
07:47:55 AM  1006    220645   13.00    7.00    0.00    0.00   20.00    34   4828.00      0.00  634664  200992   0.08  54628.00      0.00      0.00      79  perf_experiment

# Time        UID       PID    %usr %system  %guest   %wait    %CPU   CPU  minflt/s  majflt/s     VSZ     RSS   %MEM   kB_rd/s   kB_wr/s kB_ccwr/s iodelay  Command
07:47:56 AM  1006    220645   20.00   11.00    0.00    0.00   31.00    34   7109.00      0.00  634664  200992   0.08  53708.00  53808.00      0.00      80  perf_experiment

# Time        UID       PID    %usr %system  %guest   %wait    %CPU   CPU  minflt/s  majflt/s     VSZ     RSS   %MEM   kB_rd/s   kB_wr/s kB_ccwr/s iodelay  Command
07:47:57 AM  1006    220645   14.00    6.00    0.00    0.00   20.00    34    172.00      0.00  634664  200992   0.08  55716.00      0.00      0.00      79  perf_experiment

# Time        UID       PID    %usr %system  %guest   %wait    %CPU   CPU  minflt/s  majflt/s     VSZ     RSS   %MEM   kB_rd/s   kB_wr/s kB_ccwr/s iodelay  Command
07:47:58 AM  1006    220645   14.00    5.00    0.00    0.00   19.00    34     97.00      0.00  634664  200992   0.08  53376.00      0.00      0.00      81  perf_experiment

# Time        UID       PID    %usr %system  %guest   %wait    %CPU   CPU  minflt/s  majflt/s     VSZ     RSS   %MEM   kB_rd/s   kB_wr/s kB_ccwr/s iodelay  Command
07:47:59 AM  1006    220645   18.00   10.00    0.00    0.00   28.00    35    148.00      0.00  634664  200992   0.08  50672.00  53832.00      0.00      81  perf_experiment

# Time        UID       PID    %usr %system  %guest   %wait    %CPU   CPU  minflt/s  majflt/s     VSZ     RSS   %MEM   kB_rd/s   kB_wr/s kB_ccwr/s iodelay  Command
07:48:00 AM  1006    220645   16.00    5.00    0.00    0.00   21.00    36     47.00      0.00  634664  200992   0.08  49880.00      0.00      0.00      77  perf_experiment

# Time        UID       PID    %usr %system  %guest   %wait    %CPU   CPU  minflt/s  majflt/s     VSZ     RSS   %MEM   kB_rd/s   kB_wr/s kB_ccwr/s iodelay  Command
07:48:01 AM  1006    220645   15.00    7.00    0.00    0.00   22.00    36     32.00      0.00  634664  200992   0.08  49568.00      0.00      0.00      78  perf_experiment

# Time        UID       PID    %usr %system  %guest   %wait    %CPU   CPU  minflt/s  majflt/s     VSZ     RSS   %MEM   kB_rd/s   kB_wr/s kB_ccwr/s iodelay  Command
07:48:02 AM  1006    220645   21.00    8.00    0.00    0.00   29.00    36      6.00      0.00  634664  200992   0.08  48016.00      0.00      0.00      70  perf_experiment

# Time        UID       PID    %usr %system  %guest   %wait    %CPU   CPU  minflt/s  majflt/s     VSZ     RSS   %MEM   kB_rd/s   kB_wr/s kB_ccwr/s iodelay  Command
07:48:03 AM  1006    220645   90.00   51.00    0.00    0.00  141.00    36    764.00      0.00  634664  201352   0.08 116368.00 316856.00      0.00      27  perf_experiment

# Time        UID       PID    %usr %system  %guest   %wait    %CPU   CPU  minflt/s  majflt/s     VSZ     RSS   %MEM   kB_rd/s   kB_wr/s kB_ccwr/s iodelay  Command
07:48:04 AM  1006    220645  100.00   58.00    0.00    0.00  158.00    36    896.00      0.00  634664  201352   0.08  98444.00 346732.00      0.00      32  perf_experiment

# Time        UID       PID    %usr %system  %guest   %wait    %CPU   CPU  minflt/s  majflt/s     VSZ     RSS   %MEM   kB_rd/s   kB_wr/s kB_ccwr/s iodelay  Command
07:48:05 AM  1006    220645   48.00   49.00    0.00    0.00   97.00    36   8384.00      0.00  634664  201880   0.08 201704.00 274964.00      0.00      76  perf_experiment

# Time        UID       PID    %usr %system  %guest   %wait    %CPU   CPU  minflt/s  majflt/s     VSZ     RSS   %MEM   kB_rd/s   kB_wr/s kB_ccwr/s iodelay  Command
07:48:06 AM  1006    220645   46.00   46.00    0.00    0.00   92.00    37   4766.00      0.00  634664  202956   0.08 226812.00 305916.00      0.00      79  perf_experiment

# Time        UID       PID    %usr %system  %guest   %wait    %CPU   CPU  minflt/s  majflt/s     VSZ     RSS   %MEM   kB_rd/s   kB_wr/s kB_ccwr/s iodelay  Command
07:48:07 AM  1006    220645   40.00   40.00    0.00    0.00   80.00    37  11130.00      0.00  634664  203580   0.08 191832.00 253656.00      0.00      81  perf_experiment

# Time        UID       PID    %usr %system  %guest   %wait    %CPU   CPU  minflt/s  majflt/s     VSZ     RSS   %MEM   kB_rd/s   kB_wr/s kB_ccwr/s iodelay  Command
07:48:08 AM  1006    220645   14.00    5.00    0.00    0.00   19.00    38    583.00      0.00  634664  203580   0.08  56136.00      0.00      0.00      80  perf_experiment

# Time        UID       PID    %usr %system  %guest   %wait    %CPU   CPU  minflt/s  majflt/s     VSZ     RSS   %MEM   kB_rd/s   kB_wr/s kB_ccwr/s iodelay  Command
07:48:09 AM  1006    220645   13.00    5.00    0.00    0.00   18.00    37    123.00      0.00  634664  203580   0.08  57188.00      0.00      0.00      81  perf_experiment

# Time        UID       PID    %usr %system  %guest   %wait    %CPU   CPU  minflt/s  majflt/s     VSZ     RSS   %MEM   kB_rd/s   kB_wr/s kB_ccwr/s iodelay  Command