5,Faster,10,5000000,2500000,32,128,45157,5000000


resource usage stats

Linux 5.4.0-42-generic (arcon1) 	10/25/2020 	_x86_64_	(64 CPU)

# Time        UID       PID    %usr %system  %guest   %wait    %CPU   CPU  minflt/s  majflt/s     VSZ     RSS   %MEM   kB_rd/s   kB_wr/s kB_ccwr/s iodelay  Command
11:32:37 AM  1006    221256   69.00   29.00    0.00    0.00   98.00    22 145194.00      0.00  660816  585924   0.22      0.00      4.00      0.00       0  perf_experiment

# Time        UID       PID    %usr %system  %guest   %wait    %CPU   CPU  minflt/s  majflt/s     VSZ     RSS   %MEM   kB_rd/s   kB_wr/s kB_ccwr/s iodelay  Command
11:32:38 AM  1006    221256   83.00   14.00    0.00    0.00   97.00    22  48764.00      0.00  664380  589572   0.22      0.00  65536.00      0.00       4  perf_experiment

# Time        UID       PID    %usr %system  %guest   %wait    %CPU   CPU  minflt/s  majflt/s     VSZ     RSS   %MEM   kB_rd/s   kB_wr/s kB_ccwr/s iodelay  Command
11:32:39 AM  1006    221256   79.00   12.00    0.00    0.00   91.00    22  39042.00      0.00  667284  592424   0.22      0.00 131072.00      0.00       8  perf_experiment

# Time        UID       PID    %usr %system  %guest   %wait    %CPU   CPU  minflt/s  majflt/s     VSZ     RSS   %MEM   kB_rd/s   kB_wr/s kB_ccwr/s iodelay  Command
11:32:40 AM  1006    221256   74.00   18.00    0.00    0.00   92.00    22  50852.00      0.00  669660  594904   0.23   1460.50 131072.00      0.00       9  perf_experiment

# Time        UID       PID    %usr %system  %guest   %wait    %CPU   CPU  minflt/s  majflt/s     VSZ     RSS   %MEM   kB_rd/s   kB_wr/s kB_ccwr/s iodelay  Command
11:32:41 AM  1006    221256   37.00   63.00    0.00    0.00  100.00    22   1058.00      0.00  669660  594980   0.23  10310.00      0.00      0.00       0  perf_experiment

# Time        UID       PID    %usr %system  %guest   %wait    %CPU   CPU  minflt/s  majflt/s     VSZ     RSS   %MEM   kB_rd/s   kB_wr/s kB_ccwr/s iodelay  Command
11:32:42 AM  1006    221256   39.00   60.00    0.00    0.00   99.00    22    744.00      0.00  669756  595012   0.23  11358.00      0.00      0.00       0  perf_experiment

# Time        UID       PID    %usr %system  %guest   %wait    %CPU   CPU  minflt/s  majflt/s     VSZ     RSS   %MEM   kB_rd/s   kB_wr/s kB_ccwr/s iodelay  Command
11:32:43 AM  1006    221256   35.00   66.00    0.00    0.00  101.00    22   1277.00      0.00  669756  595064   0.23  10669.00      0.00      0.00       0  perf_experiment

# Time        UID       PID    %usr %system  %guest   %wait    %CPU   CPU  minflt/s  majflt/s     VSZ     RSS   %MEM   kB_rd/s   kB_wr/s kB_ccwr/s iodelay  Command
11:32:44 AM  1006    221256   38.00   60.00    0.00    0.00   98.00    22   8875.00      0.00  669860  595144   0.23  10300.50  32768.00      0.00       2  perf_experiment

# Time        UID       PID    %usr %system  %guest   %wait    %CPU   CPU  minflt/s  majflt/s     VSZ     RSS   %MEM   kB_rd/s   kB_wr/s kB_ccwr/s iodelay  Command
11:32:45 AM  1006    221256   35.00   64.00    0.00    0.00   99.00    22   1321.00      0.00  669860  595164   0.23  11052.00      0.00      0.00       0  perf_experiment

# Time        UID       PID    %usr %system  %guest   %wait    %CPU   CPU  minflt/s  majflt/s     VSZ     RSS   %MEM   kB_rd/s   kB_wr/s kB_ccwr/s iodelay  Command
11:32:46 AM  1006    221256   36.00   64.00    0.00    0.00  100.00    22    702.00      0.00  669976  595260   0.23  10616.50      0.00      0.00       0  perf_experiment

# Time        UID       PID    %usr %system  %guest   %wait    %CPU   CPU  minflt/s  majflt/s     VSZ     RSS   %MEM   kB_rd/s   kB_wr/s kB_ccwr/s iodelay  Command
11:32:47 AM  1006    221256   35.00   66.00    0.00    0.00  101.00    22    720.00      0.00  669976  595292   0.23  11098.00      0.00      0.00       0  perf_experiment

# Time        UID       PID    %usr %system  %guest   %wait    %CPU   CPU  minflt/s  majflt/s     VSZ     RSS   %MEM   kB_rd/s   kB_wr/s kB_ccwr/s iodelay  Command
11:32:48 AM  1006    221256   37.00   63.00    0.00    0.00  100.00    22   1357.00      0.00  670088  595380   0.23  10753.50      0.00      0.00       0  perf_experiment

# Time        UID       PID    %usr %system  %guest   %wait    %CPU   CPU  minflt/s  majflt/s     VSZ     RSS   %MEM   kB_rd/s   kB_wr/s kB_ccwr/s iodelay  Command
11:32:49 AM  1006    221256   38.00   61.00    0.00    0.00   99.00    22    709.00      0.00  670180  595432   0.23  10819.00      0.00      0.00       0  perf_experiment

# Time        UID       PID    %usr %system  %guest   %wait    %CPU   CPU  minflt/s  majflt/s     VSZ     RSS   %MEM   kB_rd/s   kB_wr/s kB_ccwr/s iodelay  Command
11:32:50 AM  1006    221256   38.00   62.00    0.00    0.00  100.00    22    717.00      0.00  670180  595488   0.23  10995.50      0.00      0.00       0  perf_experiment

# Time        UID       PID    %usr %system  %guest   %wait    %CPU   CPU  minflt/s  majflt/s     VSZ     RSS   %MEM   kB_rd/s   kB_wr/s kB_ccwr/s iodelay  Command
11:32:51 AM  1006    221256   34.00   66.00    0.00    0.00  100.00    22    714.00      0.00  670312  595560   0.23  10820.00      0.00      0.00       0  perf_experiment

# Time        UID       PID    %usr %system  %guest   %wait    %CPU   CPU  minflt/s  majflt/s     VSZ     RSS   %MEM   kB_rd/s   kB_wr/s kB_ccwr/s iodelay  Command
11:32:52 AM  1006    221256   39.00   61.00    0.00    0.00  100.00    22    995.00      0.00  670312  595620   0.23  10580.00      0.00      0.00       0  perf_experiment

# Time        UID       PID    %usr %system  %guest   %wait    %CPU   CPU  minflt/s  majflt/s     VSZ     RSS   %MEM   kB_rd/s   kB_wr/s kB_ccwr/s iodelay  Command
11:32:53 AM  1006    221256   36.00   65.00    0.00    0.00  101.00    22   1135.00      0.00  670312  595644   0.23  11145.50      0.00      0.00       0  perf_experiment

# Time        UID       PID    %usr %system  %guest   %wait    %CPU   CPU  minflt/s  majflt/s     VSZ     RSS   %MEM   kB_rd/s   kB_wr/s kB_ccwr/s iodelay  Command
11:32:54 AM  1006    221256   33.00   66.00    0.00    0.00   99.00    22    713.00      0.00  670440  595732   0.23  10667.50      0.00      0.00       0  perf_experiment

# Time        UID       PID    %usr %system  %guest   %wait    %CPU   CPU  minflt/s  majflt/s     VSZ     RSS   %MEM   kB_rd/s   kB_wr/s kB_ccwr/s iodelay  Command
11:32:55 AM  1006    221256   36.00   65.00    0.00    0.00  101.00    22    686.00      0.00  670548  595784   0.23  10676.00      0.00      0.00       0  perf_experiment

# Time        UID       PID    %usr %system  %guest   %wait    %CPU   CPU  minflt/s  majflt/s     VSZ     RSS   %MEM   kB_rd/s   kB_wr/s kB_ccwr/s iodelay  Command
11:32:56 AM  1006    221256   37.00   60.00    0.00    0.00   97.00    22   8922.00      0.00  670548  595856   0.23  10974.00  32768.00      0.00       2  perf_experiment

# Time        UID       PID    %usr %system  %guest   %wait    %CPU   CPU  minflt/s  majflt/s     VSZ     RSS   %MEM   kB_rd/s   kB_wr/s kB_ccwr/s iodelay  Command
11:32:57 AM  1006    221256   34.00   66.00    0.00    0.00  100.00    22    741.00      0.00  670656  595924   0.23  10366.50      0.00      0.00       0  perf_experiment

# Time        UID       PID    %usr %system  %guest   %wait    %CPU   CPU  minflt/s  majflt/s     VSZ     RSS   %MEM   kB_rd/s   kB_wr/s kB_ccwr/s iodelay  Command
11:32:58 AM  1006    221256   39.00   61.00    0.00    0.00  100.00    22   1568.00      0.00  670656  595980   0.23  11309.00      0.00      0.00       0  perf_experiment

# Time        UID       PID    %usr %system  %guest   %wait    %CPU   CPU  minflt/s  majflt/s     VSZ     RSS   %MEM   kB_rd/s   kB_wr/s kB_ccwr/s iodelay  Command
11:32:59 AM  1006    221256   32.00   68.00    0.00    0.00  100.00    22    825.00      0.00  670768  596044   0.23  10353.00      0.00      0.00       0  perf_experiment

# Time        UID       PID    %usr %system  %guest   %wait    %CPU   CPU  minflt/s  majflt/s     VSZ     RSS   %MEM   kB_rd/s   kB_wr/s kB_ccwr/s iodelay  Command
11:33:00 AM  1006    221256   31.00   70.00    0.00    0.00  101.00    22    819.00      0.00  670872  596108   0.23  11309.00      0.00      0.00       0  perf_experiment

# Time        UID       PID    %usr %system  %guest   %wait    %CPU   CPU  minflt/s  majflt/s     VSZ     RSS   %MEM   kB_rd/s   kB_wr/s kB_ccwr/s iodelay  Command
11:33:01 AM  1006    221256   35.00   64.00    0.00    0.00   99.00    22    675.00      0.00  670864  596164   0.23  10398.50      0.00      0.00       0  perf_experiment

# Time        UID       PID    %usr %system  %guest   %wait    %CPU   CPU  minflt/s  majflt/s     VSZ     RSS   %MEM   kB_rd/s   kB_wr/s kB_ccwr/s iodelay  Command
11:33:02 AM  1006    221256   34.00   66.00    0.00    0.00  100.00    22    766.00      0.00  670964  596216   0.23  11060.00      0.00      0.00       0  perf_experiment

# Time        UID       PID    %usr %system  %guest   %wait    %CPU   CPU  minflt/s  majflt/s     VSZ     RSS   %MEM   kB_rd/s   kB_wr/s kB_ccwr/s iodelay  Command
11:33:03 AM  1006    221256   39.00   61.00    0.00    0.00  100.00    22    717.00      0.00  670964  596280   0.23  11077.50      0.00      0.00       0  perf_experiment

# Time        UID       PID    %usr %system  %guest   %wait    %CPU   CPU  minflt/s  majflt/s     VSZ     RSS   %MEM   kB_rd/s   kB_wr/s kB_ccwr/s iodelay  Command
11:33:04 AM  1006    221256   38.00   62.00    0.00    0.00  100.00    22    720.00      0.00  671096  596344   0.23  10477.50      0.00      0.00       0  perf_experiment

# Time        UID       PID    %usr %system  %guest   %wait    %CPU   CPU  minflt/s  majflt/s     VSZ     RSS   %MEM   kB_rd/s   kB_wr/s kB_ccwr/s iodelay  Command
11:33:05 AM  1006    221256   40.00   61.00    0.00    0.00  101.00    22   1741.00      0.00  671096  596412   0.23  11108.50      0.00      0.00       0  perf_experiment

# Time        UID       PID    %usr %system  %guest   %wait    %CPU   CPU  minflt/s  majflt/s     VSZ     RSS   %MEM   kB_rd/s   kB_wr/s kB_ccwr/s iodelay  Command
11:33:06 AM  1006    221256   39.00   60.00    0.00    0.00   99.00    22    867.00      0.00  671208  596468   0.23  10781.50      0.00      0.00       0  perf_experiment

# Time        UID       PID    %usr %system  %guest   %wait    %CPU   CPU  minflt/s  majflt/s     VSZ     RSS   %MEM   kB_rd/s   kB_wr/s kB_ccwr/s iodelay  Command
11:33:07 AM  1006    221256   35.00   65.00    0.00    0.00  100.00    22    735.00      0.00  671208  596520   0.23  10656.00      0.00      0.00       0  perf_experiment

# Time        UID       PID    %usr %system  %guest   %wait    %CPU   CPU  minflt/s  majflt/s     VSZ     RSS   %MEM   kB_rd/s   kB_wr/s kB_ccwr/s iodelay  Command
11:33:08 AM  1006    221256   38.00   60.00    0.00    0.00   98.00    22   8991.00      0.00  671312  596580   0.23  10685.50  32768.00      0.00       3  perf_experiment

# Time        UID       PID    %usr %system  %guest   %wait    %CPU   CPU  minflt/s  majflt/s     VSZ     RSS   %MEM   kB_rd/s   kB_wr/s kB_ccwr/s iodelay  Command
11:33:09 AM  1006    221256   31.00   69.00    0.00    0.00  100.00    22    703.00      0.00  671312  596644   0.23  10855.50      0.00      0.00       0  perf_experiment

# Time        UID       PID    %usr %system  %guest   %wait    %CPU   CPU  minflt/s  majflt/s     VSZ     RSS   %MEM   kB_rd/s   kB_wr/s kB_ccwr/s iodelay  Command
11:33:10 AM  1006    221256   36.00   64.00    0.00    0.00  100.00    22    741.00      0.00  671428  596696   0.23  10752.50      0.00      0.00       0  perf_experiment

# Time        UID       PID    %usr %system  %guest   %wait    %CPU   CPU  minflt/s  majflt/s     VSZ     RSS   %MEM   kB_rd/s   kB_wr/s kB_ccwr/s iodelay  Command
11:33:11 AM  1006    221256   39.00   61.00    0.00    0.00  100.00    22    728.00      0.00  671428  596752   0.23  11026.50      0.00      0.00       0  perf_experiment

# Time        UID       PID    %usr %system  %guest   %wait    %CPU   CPU  minflt/s  majflt/s     VSZ     RSS   %MEM   kB_rd/s   kB_wr/s kB_ccwr/s iodelay  Command
11:33:12 AM  1006    221256   35.00   65.00    0.00    0.00  100.00    22    701.00      0.00  671528  596812   0.23  10511.50      0.00      0.00       0  perf_experiment

# Time        UID       PID    %usr %system  %guest   %wait    %CPU   CPU  minflt/s  majflt/s     VSZ     RSS   %MEM   kB_rd/s   kB_wr/s kB_ccwr/s iodelay  Command
11:33:13 AM  1006    221256   39.00   61.00    0.00    0.00  100.00    22    764.00      0.00  671616  596892   0.23  11196.00      0.00      0.00       0  perf_experiment

# Time        UID       PID    %usr %system  %guest   %wait    %CPU   CPU  minflt/s  majflt/s     VSZ     RSS   %MEM   kB_rd/s   kB_wr/s kB_ccwr/s iodelay  Command
11:33:14 AM  1006    221256   34.00   66.00    0.00    0.00  100.00    22   1663.00      0.00  671616  596932   0.23  10811.00      0.00      0.00       0  perf_experiment

# Time        UID       PID    %usr %system  %guest   %wait    %CPU   CPU  minflt/s  majflt/s     VSZ     RSS   %MEM   kB_rd/s   kB_wr/s kB_ccwr/s iodelay  Command
11:33:15 AM  1006    221256   33.00   67.00    0.00    0.00  100.00    22   1152.00      0.00  671732  596992   0.23  10416.50      0.00      0.00       0  perf_experiment

# Time        UID       PID    %usr %system  %guest   %wait    %CPU   CPU  minflt/s  majflt/s     VSZ     RSS   %MEM   kB_rd/s   kB_wr/s kB_ccwr/s iodelay  Command
11:33:16 AM  1006    221256   34.00   66.00    0.00    0.00  100.00    22    819.00      0.00  671732  597040   0.23  11262.50      0.00      0.00       0  perf_experiment

# Time        UID       PID    %usr %system  %guest   %wait    %CPU   CPU  minflt/s  majflt/s     VSZ     RSS   %MEM   kB_rd/s   kB_wr/s kB_ccwr/s iodelay  Command
11:33:17 AM  1006    221256   38.00   62.00    0.00    0.00  100.00    22    759.00      0.00  671836  597140   0.23  10751.50      0.00      0.00       0  perf_experiment

# Time        UID       PID    %usr %system  %guest   %wait    %CPU   CPU  minflt/s  majflt/s     VSZ     RSS   %MEM   kB_rd/s   kB_wr/s kB_ccwr/s iodelay  Command
11:33:18 AM  1006    221256   39.00   61.00    0.00    0.00  100.00    22    795.00      0.00  671836  597156   0.23  10425.00      0.00      0.00       0  perf_experiment

# Time        UID       PID    %usr %system  %guest   %wait    %CPU   CPU  minflt/s  majflt/s     VSZ     RSS   %MEM   kB_rd/s   kB_wr/s kB_ccwr/s iodelay  Command
11:33:19 AM  1006    221256   34.00   66.00    0.00    0.00  100.00    22    756.00      0.00  671952  597244   0.23  11340.00      0.00      0.00       0  perf_experiment

# Time        UID       PID    %usr %system  %guest   %wait    %CPU   CPU  minflt/s  majflt/s     VSZ     RSS   %MEM   kB_rd/s   kB_wr/s kB_ccwr/s iodelay  Command
11:33:20 AM  1006    221256   36.00   62.00    0.00    0.00   98.00    22   8862.00      0.00  671952  597284   0.23  10110.00  32768.00      0.00       2  perf_experiment

# Time        UID       PID    %usr %system  %guest   %wait    %CPU   CPU  minflt/s  majflt/s     VSZ     RSS   %MEM   kB_rd/s   kB_wr/s kB_ccwr/s iodelay  Command
11:33:21 AM  1006    221256   39.00   61.00    0.00    0.00  100.00    22    772.00      0.00  672060  597368   0.23  11338.50      0.00      0.00       0  perf_experiment

# Time        UID       PID    %usr %system  %guest   %wait    %CPU   CPU  minflt/s  majflt/s     VSZ     RSS   %MEM   kB_rd/s   kB_wr/s kB_ccwr/s iodelay  Command
11:33:22 AM  1006    221256   31.00   69.00    0.00    0.00  100.00    22    689.00      0.00  672172  597408   0.23  10382.50      0.00      0.00       0  perf_experiment

# Time        UID       PID    %usr %system  %guest   %wait    %CPU   CPU  minflt/s  majflt/s     VSZ     RSS   %MEM   kB_rd/s   kB_wr/s kB_ccwr/s iodelay  Command
11:33:23 AM  1006    221256   36.00   64.00    0.00    0.00  100.00    22    752.00      0.00  672172  597488   0.23  11245.00      0.00      0.00       0  perf_experiment

# Time        UID       PID    %usr %system  %guest   %wait    %CPU   CPU  minflt/s  majflt/s     VSZ     RSS   %MEM   kB_rd/s   kB_wr/s kB_ccwr/s iodelay  Command
11:33:24 AM  1006    221256   37.62   61.39    0.00    0.00   99.01    22    685.15      0.00  672260  597544   0.23  10354.46      0.00      0.00       0  perf_experiment

# Time        UID       PID    %usr %system  %guest   %wait    %CPU   CPU  minflt/s  majflt/s     VSZ     RSS   %MEM   kB_rd/s   kB_wr/s kB_ccwr/s iodelay  Command
11:33:25 AM  1006    221256   30.00   70.00    0.00    0.00  100.00    22    721.00      0.00  672260  597572   0.23  10908.00      0.00      0.00       0  perf_experiment

# Time        UID       PID    %usr %system  %guest   %wait    %CPU   CPU  minflt/s  majflt/s     VSZ     RSS   %MEM   kB_rd/s   kB_wr/s kB_ccwr/s iodelay  Command
11:33:26 AM  1006    221256   34.00   66.00    0.00    0.00  100.00    22   1976.00      0.00  672376  597660   0.23  11059.00      0.00      0.00       0  perf_experiment

# Time        UID       PID    %usr %system  %guest   %wait    %CPU   CPU  minflt/s  majflt/s     VSZ     RSS   %MEM   kB_rd/s   kB_wr/s kB_ccwr/s iodelay  Command
11:33:27 AM  1006    221256   36.00   64.00    0.00    0.00  100.00    22   1233.00      0.00  672376  597696   0.23  10976.00      0.00      0.00       0  perf_experiment

# Time        UID       PID    %usr %system  %guest   %wait    %CPU   CPU  minflt/s  majflt/s     VSZ     RSS   %MEM   kB_rd/s   kB_wr/s kB_ccwr/s iodelay  Command
11:33:28 AM  1006    221256   38.00   62.00    0.00    0.00  100.00    22    869.00      0.00  672500  597784   0.23  10598.50      0.00      0.00       0  perf_experiment

# Time        UID       PID    %usr %system  %guest   %wait    %CPU   CPU  minflt/s  majflt/s     VSZ     RSS   %MEM   kB_rd/s   kB_wr/s kB_ccwr/s iodelay  Command
11:33:29 AM  1006    221256   32.00   67.00    0.00    0.00   99.00    22    785.00      0.00  672500  597824   0.23  10799.50      0.00      0.00       0  perf_experiment

# Time        UID       PID    %usr %system  %guest   %wait    %CPU   CPU  minflt/s  majflt/s     VSZ     RSS   %MEM   kB_rd/s   kB_wr/s kB_ccwr/s iodelay  Command
11:33:30 AM  1006    221256   36.00   65.00    0.00    0.00  101.00    22    860.00      0.00  672636  597896   0.23  10848.00      0.00      0.00       0  perf_experiment

# Time        UID       PID    %usr %system  %guest   %wait    %CPU   CPU  minflt/s  majflt/s     VSZ     RSS   %MEM   kB_rd/s   kB_wr/s kB_ccwr/s iodelay  Command
11:33:31 AM  1006    221256   35.00   64.00    0.00    0.00   99.00    22    735.00      0.00  672636  597948   0.23  10840.50      0.00      0.00       0  perf_experiment

# Time        UID       PID    %usr %system  %guest   %wait    %CPU   CPU  minflt/s  majflt/s     VSZ     RSS   %MEM   kB_rd/s   kB_wr/s kB_ccwr/s iodelay  Command
11:33:32 AM  1006    221256   39.00   59.00    0.00    0.00   98.00    22   8910.00      0.00  672736  598036   0.23  10723.00  32768.00      0.00       2  perf_experiment

# Time        UID       PID    %usr %system  %guest   %wait    %CPU   CPU  minflt/s  majflt/s     VSZ     RSS   %MEM   kB_rd/s   kB_wr/s kB_ccwr/s iodelay  Command
11:33:33 AM  1006    221256   41.00   59.00    0.00    0.00  100.00    22    675.00      0.00  672736  598060   0.23  10484.50      0.00      0.00       0  perf_experiment

# Time        UID       PID    %usr %system  %guest   %wait    %CPU   CPU  minflt/s  majflt/s     VSZ     RSS   %MEM   kB_rd/s   kB_wr/s kB_ccwr/s iodelay  Command
11:33:34 AM  1006    221256   37.00   63.00    0.00    0.00  100.00    22    735.00      0.00  672860  598148   0.23  11197.00      0.00      0.00       0  perf_experiment

# Time        UID       PID    %usr %system  %guest   %wait    %CPU   CPU  minflt/s  majflt/s     VSZ     RSS   %MEM   kB_rd/s   kB_wr/s kB_ccwr/s iodelay  Command
11:33:35 AM  1006    221256   36.00   65.00    0.00    0.00  101.00    22    718.00      0.00  672940  598200   0.23  10522.50      0.00      0.00       0  perf_experiment

# Time        UID       PID    %usr %system  %guest   %wait    %CPU   CPU  minflt/s  majflt/s     VSZ     RSS   %MEM   kB_rd/s   kB_wr/s kB_ccwr/s iodelay  Command
11:33:36 AM  1006    221256   28.00   71.00    0.00    0.00   99.00    22    705.00      0.00  672940  598256   0.23  10614.00      0.00      0.00       0  perf_experiment

# Time        UID       PID    %usr %system  %guest   %wait    %CPU   CPU  minflt/s  majflt/s     VSZ     RSS   %MEM   kB_rd/s   kB_wr/s kB_ccwr/s iodelay  Command
11:33:37 AM  1006    221256   34.00   67.00    0.00    0.00  101.00    22    735.00      0.00  673044  598312   0.23  11354.50      0.00      0.00       0  perf_experiment

# Time        UID       PID    %usr %system  %guest   %wait    %CPU   CPU  minflt/s  majflt/s     VSZ     RSS   %MEM   kB_rd/s   kB_wr/s kB_ccwr/s iodelay  Command
11:33:38 AM  1006    221256   36.00   63.00    0.00    0.00   99.00    22    713.00      0.00  673136  598380   0.23  10810.00      0.00      0.00       0  perf_experiment

# Time        UID       PID    %usr %system  %guest   %wait    %CPU   CPU  minflt/s  majflt/s     VSZ     RSS   %MEM   kB_rd/s   kB_wr/s kB_ccwr/s iodelay  Command
11:33:39 AM  1006    221256   34.00   67.00    0.00    0.00  101.00    22    708.00      0.00  673136  598444   0.23  10576.00      0.00      0.00       0  perf_experiment

# Time        UID       PID    %usr %system  %guest   %wait    %CPU   CPU  minflt/s  majflt/s     VSZ     RSS   %MEM   kB_rd/s   kB_wr/s kB_ccwr/s iodelay  Command
11:33:40 AM  1006    221256   32.00   68.00    0.00    0.00  100.00    22    737.00      0.00  673268  598496   0.23  11199.00      0.00      0.00       0  perf_experiment

# Time        UID       PID    %usr %system  %guest   %wait    %CPU   CPU  minflt/s  majflt/s     VSZ     RSS   %MEM   kB_rd/s   kB_wr/s kB_ccwr/s iodelay  Command
11:33:41 AM  1006    221256   34.00   66.00    0.00    0.00  100.00    22   1820.00      0.00  673268  598568   0.23  10433.50      0.00      0.00       0  perf_experiment

# Time        UID       PID    %usr %system  %guest   %wait    %CPU   CPU  minflt/s  majflt/s     VSZ     RSS   %MEM   kB_rd/s   kB_wr/s kB_ccwr/s iodelay  Command
11:33:42 AM  1006    221256   30.00   69.00    0.00    0.00   99.00    22   1362.00      0.00  673268  598596   0.23  11292.00      0.00      0.00       0  perf_experiment

# Time        UID       PID    %usr %system  %guest   %wait    %CPU   CPU  minflt/s  majflt/s     VSZ     RSS   %MEM   kB_rd/s   kB_wr/s kB_ccwr/s iodelay  Command
11:33:43 AM  1006    221256   38.00   62.00    0.00    0.00  100.00    22   1238.00      0.00  673392  598676   0.23  10572.00      0.00      0.00       0  perf_experiment

# Time        UID       PID    %usr %system  %guest   %wait    %CPU   CPU  minflt/s  majflt/s     VSZ     RSS   %MEM   kB_rd/s   kB_wr/s kB_ccwr/s iodelay  Command
11:33:44 AM  1006    221256   39.00   59.00    0.00    0.00   98.00    22   9327.00      0.00  673392  598708   0.23  10662.50  32768.00      0.00       3  perf_experiment

# Time        UID       PID    %usr %system  %guest   %wait    %CPU   CPU  minflt/s  majflt/s     VSZ     RSS   %MEM   kB_rd/s   kB_wr/s kB_ccwr/s iodelay  Command
11:33:45 AM  1006    221256   34.00   66.00    0.00    0.00  100.00    22     94.00      0.00  673512  598792   0.23  10819.00      0.00      0.00       0  perf_experiment

# Time        UID       PID    %usr %system  %guest   %wait    %CPU   CPU  minflt/s  majflt/s     VSZ     RSS   %MEM   kB_rd/s   kB_wr/s kB_ccwr/s iodelay  Command
11:33:46 AM  1006    221256   32.00   68.00    0.00    0.00  100.00    22     64.00      0.00  673620  598848   0.23  10802.00      0.00      0.00       0  perf_experiment

# Time        UID       PID    %usr %system  %guest   %wait    %CPU   CPU  minflt/s  majflt/s     VSZ     RSS   %MEM   kB_rd/s   kB_wr/s kB_ccwr/s iodelay  Command
11:33:47 AM  1006    221256   33.00   66.00    0.00    0.00   99.00    22    205.00      0.00  673620  598912   0.23  11080.00      0.00      0.00       0  perf_experiment

# Time        UID       PID    %usr %system  %guest   %wait    %CPU   CPU  minflt/s  majflt/s     VSZ     RSS   %MEM   kB_rd/s   kB_wr/s kB_ccwr/s iodelay  Command
11:33:48 AM  1006    221256   38.00   63.00    0.00    0.00  101.00    22    709.00      0.00  673732  598984   0.23  10565.00      0.00      0.00       0  perf_experiment

# Time        UID       PID    %usr %system  %guest   %wait    %CPU   CPU  minflt/s  majflt/s     VSZ     RSS   %MEM   kB_rd/s   kB_wr/s kB_ccwr/s iodelay  Command
11:33:49 AM  1006    221256   40.00   60.00    0.00    0.00  100.00    22    711.00      0.00  673732  599040   0.23  10701.00      0.00      0.00       0  perf_experiment

# Time        UID       PID    %usr %system  %guest   %wait    %CPU   CPU  minflt/s  majflt/s     VSZ     RSS   %MEM   kB_rd/s   kB_wr/s kB_ccwr/s iodelay  Command
11:33:50 AM  1006    221256   36.00   64.00    0.00    0.00  100.00    22    718.00      0.00  673832  599112   0.23  10938.00      0.00      0.00       0  perf_experiment

# Time        UID       PID    %usr %system  %guest   %wait    %CPU   CPU  minflt/s  majflt/s     VSZ     RSS   %MEM   kB_rd/s   kB_wr/s kB_ccwr/s iodelay  Command
11:33:51 AM  1006    221256   35.00   65.00    0.00    0.00  100.00    22    702.00      0.00  673832  599164   0.23  10840.00      0.00      0.00       0  perf_experiment

# Time        UID       PID    %usr %system  %guest   %wait    %CPU   CPU  minflt/s  majflt/s     VSZ     RSS   %MEM   kB_rd/s   kB_wr/s kB_ccwr/s iodelay  Command
11:33:52 AM  1006    221256   39.00   61.00    0.00    0.00  100.00    22    708.00      0.00  673932  599216   0.23  10829.00      0.00      0.00       0  perf_experiment

# Time        UID       PID    %usr %system  %guest   %wait    %CPU   CPU  minflt/s  majflt/s     VSZ     RSS   %MEM   kB_rd/s   kB_wr/s kB_ccwr/s iodelay  Command
11:33:53 AM  1006    221256   40.00   60.00    0.00    0.00  100.00    22    720.00      0.00  674040  599280   0.23  10923.00      0.00      0.00       0  perf_experiment

# Time        UID       PID    %usr %system  %guest   %wait    %CPU   CPU  minflt/s  majflt/s     VSZ     RSS   %MEM   kB_rd/s   kB_wr/s kB_ccwr/s iodelay  Command
11:33:54 AM  1006    221256   36.00   64.00    0.00    0.00  100.00    22    690.00      0.00  674040  599348   0.23  10564.50      0.00      0.00       0  perf_experiment

# Time        UID       PID    %usr %system  %guest   %wait    %CPU   CPU  minflt/s  majflt/s     VSZ     RSS   %MEM   kB_rd/s   kB_wr/s kB_ccwr/s iodelay  Command
11:33:55 AM  1006    221256   36.00   64.00    0.00    0.00  100.00    22    745.00      0.00  674132  599400   0.23  11176.00      0.00      0.00       0  perf_experiment

# Time        UID       PID    %usr %system  %guest   %wait    %CPU   CPU  minflt/s  majflt/s     VSZ     RSS   %MEM   kB_rd/s   kB_wr/s kB_ccwr/s iodelay  Command
11:33:56 AM  1006    221256   39.00   61.00    0.00    0.00  100.00    22    682.00      0.00  674132  599432   0.23  10568.00      0.00      0.00       0  perf_experiment

# Time        UID       PID    %usr %system  %guest   %wait    %CPU   CPU  minflt/s  majflt/s     VSZ     RSS   %MEM   kB_rd/s   kB_wr/s kB_ccwr/s iodelay  Command
11:33:57 AM  1006    221256   38.00   60.00    0.00    0.00   98.00    22   8929.00      0.00  674236  599520   0.23  10771.50  32768.00      0.00       2  perf_experiment

# Time        UID       PID    %usr %system  %guest   %wait    %CPU   CPU  minflt/s  majflt/s     VSZ     RSS   %MEM   kB_rd/s   kB_wr/s kB_ccwr/s iodelay  Command
11:33:58 AM  1006    221256   42.00   58.00    0.00    0.00  100.00    22    720.00      0.00  674236  599552   0.23  10840.00      0.00      0.00       0  perf_experiment

# Time        UID       PID    %usr %system  %guest   %wait    %CPU   CPU  minflt/s  majflt/s     VSZ     RSS   %MEM   kB_rd/s   kB_wr/s kB_ccwr/s iodelay  Command
11:33:59 AM  1006    221256   38.00   61.00    0.00    0.00   99.00    22    702.00      0.00  674352  599648   0.23  10572.00      0.00      0.00       0  perf_experiment

# Time        UID       PID    %usr %system  %guest   %wait    %CPU   CPU  minflt/s  majflt/s     VSZ     RSS   %MEM   kB_rd/s   kB_wr/s kB_ccwr/s iodelay  Command
11:34:00 AM  1006    221256   41.00   60.00    0.00    0.00  101.00    22    727.00      0.00  674352  599668   0.23  11106.50      0.00      0.00       0  perf_experiment

# Time        UID       PID    %usr %system  %guest   %wait    %CPU   CPU  minflt/s  majflt/s     VSZ     RSS   %MEM   kB_rd/s   kB_wr/s kB_ccwr/s iodelay  Command
11:34:01 AM  1006    221256   38.00   62.00    0.00    0.00  100.00    22   1974.00      0.00  674472  599756   0.23  10725.00      0.00      0.00       0  perf_experiment

# Time        UID       PID    %usr %system  %guest   %wait    %CPU   CPU  minflt/s  majflt/s     VSZ     RSS   %MEM   kB_rd/s   kB_wr/s kB_ccwr/s iodelay  Command
11:34:02 AM  1006    221256   32.00   68.00    0.00    0.00  100.00    22   1715.00      0.00  674472  599796   0.23  10755.50      0.00      0.00       0  perf_experiment

# Time        UID       PID    %usr %system  %guest   %wait    %CPU   CPU  minflt/s  majflt/s     VSZ     RSS   %MEM   kB_rd/s   kB_wr/s kB_ccwr/s iodelay  Command
11:34:03 AM  1006    221256   41.00   59.00    0.00    0.00  100.00    22   1168.00      0.00  674596  599888   0.23  11097.50      0.00      0.00       0  perf_experiment

# Time        UID       PID    %usr %system  %guest   %wait    %CPU   CPU  minflt/s  majflt/s     VSZ     RSS   %MEM   kB_rd/s   kB_wr/s kB_ccwr/s iodelay  Command
11:34:04 AM  1006    221256   42.00   58.00    0.00    0.00  100.00    22   1065.00      0.00  674596  599920   0.23  10657.50      0.00      0.00       0  perf_experiment

# Time        UID       PID    %usr %system  %guest   %wait    %CPU   CPU  minflt/s  majflt/s     VSZ     RSS   %MEM   kB_rd/s   kB_wr/s kB_ccwr/s iodelay  Command