2,Sled,1,5000000,2500000,128,512,48010,5000000


resource usage stats

Linux 5.4.0-42-generic (arcon1) 	10/25/2020 	_x86_64_	(64 CPU)

# Time        UID       PID    %usr %system  %guest   %wait    %CPU   CPU  minflt/s  majflt/s     VSZ     RSS   %MEM   kB_rd/s   kB_wr/s kB_ccwr/s iodelay  Command
01:51:40 AM  1006    218745  105.00   81.00    0.00    0.00  186.00    59 112462.00      0.00  809956  191136   0.07      0.00 261648.00      0.00       0  perf_experiment

# Time        UID       PID    %usr %system  %guest   %wait    %CPU   CPU  minflt/s  majflt/s     VSZ     RSS   %MEM   kB_rd/s   kB_wr/s kB_ccwr/s iodelay  Command
01:51:41 AM  1006    218745  107.00   65.00    0.00    0.00  172.00    59  79381.00      0.00  917984  299368   0.11      0.00 207028.00      0.00       0  perf_experiment

# Time        UID       PID    %usr %system  %guest   %wait    %CPU   CPU  minflt/s  majflt/s     VSZ     RSS   %MEM   kB_rd/s   kB_wr/s kB_ccwr/s iodelay  Command
01:51:42 AM  1006    218745  107.00   76.00    0.00    0.00  183.00    59 126450.00      0.00  981128  362448   0.14      0.00 249176.00      0.00       0  perf_experiment

# Time        UID       PID    %usr %system  %guest   %wait    %CPU   CPU  minflt/s  majflt/s     VSZ     RSS   %MEM   kB_rd/s   kB_wr/s kB_ccwr/s iodelay  Command
01:51:43 AM  1006    218745  109.00   60.00    0.00    0.00  169.00    59  71661.00      0.00 1068008  450148   0.17      0.00 196832.00      0.00       0  perf_experiment

# Time        UID       PID    %usr %system  %guest   %wait    %CPU   CPU  minflt/s  majflt/s     VSZ     RSS   %MEM   kB_rd/s   kB_wr/s kB_ccwr/s iodelay  Command
01:51:44 AM  1006    218745   95.00   58.00    0.00    0.00  153.00    59  82835.00      0.00 1068800  451504   0.17      0.00  78316.00      0.00       0  perf_experiment

# Time        UID       PID    %usr %system  %guest   %wait    %CPU   CPU  minflt/s  majflt/s     VSZ     RSS   %MEM   kB_rd/s   kB_wr/s kB_ccwr/s iodelay  Command
01:51:45 AM  1006    218745   95.05   70.30    0.00    0.00  165.35    59  50838.61      0.00 1068932  451860   0.17      0.00 127754.46      0.00       0  perf_experiment

# Time        UID       PID    %usr %system  %guest   %wait    %CPU   CPU  minflt/s  majflt/s     VSZ     RSS   %MEM   kB_rd/s   kB_wr/s kB_ccwr/s iodelay  Command
01:51:46 AM  1006    218745   98.00   43.00    0.00    0.00  141.00    59  25935.00      0.00 1090564  474280   0.18      0.00  64924.00      0.00       0  perf_experiment

# Time        UID       PID    %usr %system  %guest   %wait    %CPU   CPU  minflt/s  majflt/s     VSZ     RSS   %MEM   kB_rd/s   kB_wr/s kB_ccwr/s iodelay  Command
01:51:47 AM  1006    218745   95.00   47.00    0.00    0.00  142.00    59  88493.00      0.00 1118120  501948   0.19      0.00  65200.00      0.00       0  perf_experiment

# Time        UID       PID    %usr %system  %guest   %wait    %CPU   CPU  minflt/s  majflt/s     VSZ     RSS   %MEM   kB_rd/s   kB_wr/s kB_ccwr/s iodelay  Command
01:51:48 AM  1006    218745  106.00   83.00    0.00    0.00  189.00    60  45187.00      0.00 1118392  503060   0.19      0.00 175624.00      0.00       0  perf_experiment

# Time        UID       PID    %usr %system  %guest   %wait    %CPU   CPU  minflt/s  majflt/s     VSZ     RSS   %MEM   kB_rd/s   kB_wr/s kB_ccwr/s iodelay  Command
01:51:49 AM  1006    218745   98.00   88.00    0.00    0.00  186.00    60  72809.00      0.00 1118392  503160   0.19      0.00 168456.00      0.00       0  perf_experiment

# Time        UID       PID    %usr %system  %guest   %wait    %CPU   CPU  minflt/s  majflt/s     VSZ     RSS   %MEM   kB_rd/s   kB_wr/s kB_ccwr/s iodelay  Command
01:51:50 AM  1006    218745  104.00   77.00    0.00    0.00  181.00    60 109443.00      0.00 1117344  501964   0.19      0.00 185356.00      0.00       0  perf_experiment

# Time        UID       PID    %usr %system  %guest   %wait    %CPU   CPU  minflt/s  majflt/s     VSZ     RSS   %MEM   kB_rd/s   kB_wr/s kB_ccwr/s iodelay  Command
01:51:51 AM  1006    218745   91.00   33.00    0.00    0.00  124.00    60  53446.00      0.00 1152496  537608   0.20      0.00  29732.00      0.00       0  perf_experiment

# Time        UID       PID    %usr %system  %guest   %wait    %CPU   CPU  minflt/s  majflt/s     VSZ     RSS   %MEM   kB_rd/s   kB_wr/s kB_ccwr/s iodelay  Command
01:51:52 AM  1006    218745   95.00   49.00    0.00    0.00  144.00    60  21535.00      0.00 1160200  545148   0.21      0.00  64520.00      0.00       0  perf_experiment

# Time        UID       PID    %usr %system  %guest   %wait    %CPU   CPU  minflt/s  majflt/s     VSZ     RSS   %MEM   kB_rd/s   kB_wr/s kB_ccwr/s iodelay  Command
01:51:53 AM  1006    218745  102.00   59.00    0.00    0.00  161.00    60  23242.00      0.00 1162740  548284   0.21      0.00  90120.00      0.00       0  perf_experiment

# Time        UID       PID    %usr %system  %guest   %wait    %CPU   CPU  minflt/s  majflt/s     VSZ     RSS   %MEM   kB_rd/s   kB_wr/s kB_ccwr/s iodelay  Command
01:51:54 AM  1006    218745   98.00   60.00    0.00    0.00  158.00    60  86511.00      0.00 1162420  547972   0.21      0.00  83976.00      0.00       0  perf_experiment

# Time        UID       PID    %usr %system  %guest   %wait    %CPU   CPU  minflt/s  majflt/s     VSZ     RSS   %MEM   kB_rd/s   kB_wr/s kB_ccwr/s iodelay  Command
01:51:55 AM  1006    218745   92.00   30.00    0.00    0.00  122.00    60   6163.00      0.00 1162420  548592   0.21      0.00  23044.00      0.00       0  perf_experiment

# Time        UID       PID    %usr %system  %guest   %wait    %CPU   CPU  minflt/s  majflt/s     VSZ     RSS   %MEM   kB_rd/s   kB_wr/s kB_ccwr/s iodelay  Command
01:51:56 AM  1006    218745   91.00   32.00    0.00    0.00  123.00    60  46991.00      0.00 1162420  549792   0.21      0.00  22024.00      0.00       0  perf_experiment

# Time        UID       PID    %usr %system  %guest   %wait    %CPU   CPU  minflt/s  majflt/s     VSZ     RSS   %MEM   kB_rd/s   kB_wr/s kB_ccwr/s iodelay  Command
01:51:57 AM  1006    218745   92.00   29.00    0.00    0.00  121.00    60   5801.00      0.00 1162420  550092   0.21      0.00  19464.00      0.00       0  perf_experiment

# Time        UID       PID    %usr %system  %guest   %wait    %CPU   CPU  minflt/s  majflt/s     VSZ     RSS   %MEM   kB_rd/s   kB_wr/s kB_ccwr/s iodelay  Command
01:51:58 AM  1006    218745   93.00   29.00    0.00    0.00  122.00    60   5938.00      0.00 1162420  551080   0.21      0.00  22024.00      0.00       0  perf_experiment

# Time        UID       PID    %usr %system  %guest   %wait    %CPU   CPU  minflt/s  majflt/s     VSZ     RSS   %MEM   kB_rd/s   kB_wr/s kB_ccwr/s iodelay  Command
01:51:59 AM  1006    218745   89.00   31.00    0.00    0.00  120.00    60   5350.00      0.00 1162420  551688   0.21      0.00  20488.00      0.00       0  perf_experiment

# Time        UID       PID    %usr %system  %guest   %wait    %CPU   CPU  minflt/s  majflt/s     VSZ     RSS   %MEM   kB_rd/s   kB_wr/s kB_ccwr/s iodelay  Command
01:52:00 AM  1006    218745   86.00   38.00    0.00    0.00  124.00    60  72053.00      0.00 1162944  560988   0.21      0.00  19464.00      0.00       0  perf_experiment

# Time        UID       PID    %usr %system  %guest   %wait    %CPU   CPU  minflt/s  majflt/s     VSZ     RSS   %MEM   kB_rd/s   kB_wr/s kB_ccwr/s iodelay  Command
01:52:01 AM  1006    218745   94.00   28.00    0.00    0.00  122.00    60   6706.00      0.00 1162420  563456   0.21      0.00  21508.00      0.00       0  perf_experiment

# Time        UID       PID    %usr %system  %guest   %wait    %CPU   CPU  minflt/s  majflt/s     VSZ     RSS   %MEM   kB_rd/s   kB_wr/s kB_ccwr/s iodelay  Command
01:52:02 AM  1006    218745   93.00   27.00    0.00    0.00  120.00    60  33717.00      0.00 1162944  564388   0.21      0.00  18440.00      0.00       0  perf_experiment

# Time        UID       PID    %usr %system  %guest   %wait    %CPU   CPU  minflt/s  majflt/s     VSZ     RSS   %MEM   kB_rd/s   kB_wr/s kB_ccwr/s iodelay  Command
01:52:03 AM  1006    218745   98.00   37.00    0.00    0.00  135.00    60  10634.00      0.00 1163992  566464   0.21      0.00  34312.00      0.00       0  perf_experiment

# Time        UID       PID    %usr %system  %guest   %wait    %CPU   CPU  minflt/s  majflt/s     VSZ     RSS   %MEM   kB_rd/s   kB_wr/s kB_ccwr/s iodelay  Command
01:52:04 AM  1006    218745  108.00   50.00    0.00    0.00  158.00    60  13941.00      0.00 1160768  563748   0.21      0.00  75784.00      0.00       0  perf_experiment

# Time        UID       PID    %usr %system  %guest   %wait    %CPU   CPU  minflt/s  majflt/s     VSZ     RSS   %MEM   kB_rd/s   kB_wr/s kB_ccwr/s iodelay  Command
01:52:05 AM  1006    218745   97.00   56.00    0.00    0.00  153.00    60  13163.00      0.00 1161292  563740   0.21      0.00  70664.00      0.00       0  perf_experiment

# Time        UID       PID    %usr %system  %guest   %wait    %CPU   CPU  minflt/s  majflt/s     VSZ     RSS   %MEM   kB_rd/s   kB_wr/s kB_ccwr/s iodelay  Command
01:52:06 AM  1006    218745   98.00   54.00    0.00    0.00  152.00    60  12462.00      0.00 1160768  563712   0.21      0.00  71172.00      0.00       0  perf_experiment

# Time        UID       PID    %usr %system  %guest   %wait    %CPU   CPU  minflt/s  majflt/s     VSZ     RSS   %MEM   kB_rd/s   kB_wr/s kB_ccwr/s iodelay  Command
01:52:07 AM  1006    218745  100.00   67.00    0.00    0.00  167.00    60  17506.00      0.00 1162864  565292   0.21      0.00  98312.00      0.00       0  perf_experiment

# Time        UID       PID    %usr %system  %guest   %wait    %CPU   CPU  minflt/s  majflt/s     VSZ     RSS   %MEM   kB_rd/s   kB_wr/s kB_ccwr/s iodelay  Command
01:52:08 AM  1006    218745  107.00   68.00    0.00    0.00  175.00    60  20636.00      0.00 1162340  564936   0.21      0.00 109576.00      0.00       0  perf_experiment

# Time        UID       PID    %usr %system  %guest   %wait    %CPU   CPU  minflt/s  majflt/s     VSZ     RSS   %MEM   kB_rd/s   kB_wr/s kB_ccwr/s iodelay  Command
01:52:09 AM  1006    218745   96.00   76.00    0.00    0.00  172.00    60  83857.00      0.00 1161968  564404   0.21      0.00 100868.00      0.00       0  perf_experiment

# Time        UID       PID    %usr %system  %guest   %wait    %CPU   CPU  minflt/s  majflt/s     VSZ     RSS   %MEM   kB_rd/s   kB_wr/s kB_ccwr/s iodelay  Command
01:52:10 AM  1006    218745  108.00   71.00    0.00    0.00  179.00    60  20650.00      0.00 1163016  565480   0.21      0.00 109576.00      0.00       0  perf_experiment

# Time        UID       PID    %usr %system  %guest   %wait    %CPU   CPU  minflt/s  majflt/s     VSZ     RSS   %MEM   kB_rd/s   kB_wr/s kB_ccwr/s iodelay  Command
01:52:11 AM  1006    218745  112.00   71.00    0.00    0.00  183.00    60  43497.00      0.00 1164064  566664   0.21      0.00 124424.00      0.00       0  perf_experiment

# Time        UID       PID    %usr %system  %guest   %wait    %CPU   CPU  minflt/s  majflt/s     VSZ     RSS   %MEM   kB_rd/s   kB_wr/s kB_ccwr/s iodelay  Command
01:52:12 AM  1006    218745  108.00   85.00    0.00    0.00  193.00    61  42172.00      0.00 1163016  565372   0.21      0.00 152072.00      0.00       0  perf_experiment

# Time        UID       PID    %usr %system  %guest   %wait    %CPU   CPU  minflt/s  majflt/s     VSZ     RSS   %MEM   kB_rd/s   kB_wr/s kB_ccwr/s iodelay  Command
01:52:13 AM  1006    218745  113.00   74.00    0.00    0.00  187.00    61  24077.00      0.00 1162492  564896   0.21      0.00 133296.00      0.00       0  perf_experiment

# Time        UID       PID    %usr %system  %guest   %wait    %CPU   CPU  minflt/s  majflt/s     VSZ     RSS   %MEM   kB_rd/s   kB_wr/s kB_ccwr/s iodelay  Command
01:52:14 AM  1006    218745  109.00   84.00    0.00    0.00  193.00    61  22388.00      0.00 1163540  565920   0.21      0.00 132448.00      0.00       0  perf_experiment

# Time        UID       PID    %usr %system  %guest   %wait    %CPU   CPU  minflt/s  majflt/s     VSZ     RSS   %MEM   kB_rd/s   kB_wr/s kB_ccwr/s iodelay  Command
01:52:15 AM  1006    218745   97.00   94.00    0.00    0.00  191.00    61  30331.00      0.00 1163016  565912   0.21      0.00 137224.00      0.00       0  perf_experiment

# Time        UID       PID    %usr %system  %guest   %wait    %CPU   CPU  minflt/s  majflt/s     VSZ     RSS   %MEM   kB_rd/s   kB_wr/s kB_ccwr/s iodelay  Command
01:52:16 AM  1006    218745  106.00   51.00    0.00    0.00  157.00    61  19266.00      0.00 1161968  564792   0.21      0.00  81416.00      0.00       0  perf_experiment

# Time        UID       PID    %usr %system  %guest   %wait    %CPU   CPU  minflt/s  majflt/s     VSZ     RSS   %MEM   kB_rd/s   kB_wr/s kB_ccwr/s iodelay  Command
01:52:17 AM  1006    218745   98.00   22.00    0.00    0.00  120.00    61  12547.00      0.00 1172884  574644   0.22      0.00  24068.00      0.00       0  perf_experiment

# Time        UID       PID    %usr %system  %guest   %wait    %CPU   CPU  minflt/s  majflt/s     VSZ     RSS   %MEM   kB_rd/s   kB_wr/s kB_ccwr/s iodelay  Command
01:52:18 AM  1006    218745  105.00   57.00    0.00    0.00  162.00    61  21148.00      0.00 1179980  580908   0.22      0.00  78344.00      0.00       0  perf_experiment

# Time        UID       PID    %usr %system  %guest   %wait    %CPU   CPU  minflt/s  majflt/s     VSZ     RSS   %MEM   kB_rd/s   kB_wr/s kB_ccwr/s iodelay  Command
01:52:19 AM  1006    218745  106.00   67.00    0.00    0.00  173.00    61  26895.00      0.00 1180136  581504   0.22      0.00 104968.00      0.00       0  perf_experiment

# Time        UID       PID    %usr %system  %guest   %wait    %CPU   CPU  minflt/s  majflt/s     VSZ     RSS   %MEM   kB_rd/s   kB_wr/s kB_ccwr/s iodelay  Command
01:52:20 AM  1006    218745  106.00   70.00    0.00    0.00  176.00    61  22997.00      0.00 1179612  581220   0.22      0.00  99848.00      0.00       0  perf_experiment

# Time        UID       PID    %usr %system  %guest   %wait    %CPU   CPU  minflt/s  majflt/s     VSZ     RSS   %MEM   kB_rd/s   kB_wr/s kB_ccwr/s iodelay  Command
01:52:21 AM  1006    218745  106.00   75.00    0.00    0.00  181.00    61  20271.00      0.00 1180136  581992   0.22      0.00 108040.00      0.00       0  perf_experiment

# Time        UID       PID    %usr %system  %guest   %wait    %CPU   CPU  minflt/s  majflt/s     VSZ     RSS   %MEM   kB_rd/s   kB_wr/s kB_ccwr/s iodelay  Command
01:52:22 AM  1006    218745   94.00   31.00    0.00    0.00  125.00    61  70329.00      0.00 1179088  580980   0.22      0.00  33800.00      0.00       0  perf_experiment

# Time        UID       PID    %usr %system  %guest   %wait    %CPU   CPU  minflt/s  majflt/s     VSZ     RSS   %MEM   kB_rd/s   kB_wr/s kB_ccwr/s iodelay  Command
01:52:23 AM  1006    218745   93.00   28.00    0.00    0.00  121.00    61     46.00      0.00 1179088  580980   0.22      0.00  23044.00      0.00       0  perf_experiment

# Time        UID       PID    %usr %system  %guest   %wait    %CPU   CPU  minflt/s  majflt/s     VSZ     RSS   %MEM   kB_rd/s   kB_wr/s kB_ccwr/s iodelay  Command
01:52:24 AM  1006    218745   93.00   27.00    0.00    0.00  120.00    61     29.00      0.00 1179088  581036   0.22      0.00  19464.00      0.00       0  perf_experiment

# Time        UID       PID    %usr %system  %guest   %wait    %CPU   CPU  minflt/s  majflt/s     VSZ     RSS   %MEM   kB_rd/s   kB_wr/s kB_ccwr/s iodelay  Command
01:52:25 AM  1006    218745   92.00   28.00    0.00    0.00  120.00    61      2.00      0.00 1179088  581036   0.22      0.00  20488.00      0.00       0  perf_experiment

# Time        UID       PID    %usr %system  %guest   %wait    %CPU   CPU  minflt/s  majflt/s     VSZ     RSS   %MEM   kB_rd/s   kB_wr/s kB_ccwr/s iodelay  Command
01:52:26 AM  1006    218745   90.00   31.00    0.00    0.00  121.00    61      1.00      0.00 1179088  581036   0.22      0.00  19460.00      0.00       0  perf_experiment

# Time        UID       PID    %usr %system  %guest   %wait    %CPU   CPU  minflt/s  majflt/s     VSZ     RSS   %MEM   kB_rd/s   kB_wr/s kB_ccwr/s iodelay  Command
01:52:27 AM  1006    218745   88.00   31.00    0.00    0.00  119.00    61      2.00      0.00 1179088  581036   0.22      0.00  19464.00      0.00       0  perf_experiment

# Time        UID       PID    %usr %system  %guest   %wait    %CPU   CPU  minflt/s  majflt/s     VSZ     RSS   %MEM   kB_rd/s   kB_wr/s kB_ccwr/s iodelay  Command
01:52:28 AM  1006    218745   89.00   33.00    0.00    0.00  122.00    61     37.00      0.00 1179088  581036   0.22      0.00  21512.00      0.00       0  perf_experiment

# Time        UID       PID    %usr %system  %guest   %wait    %CPU   CPU  minflt/s  majflt/s     VSZ     RSS   %MEM   kB_rd/s   kB_wr/s kB_ccwr/s iodelay  Command
01:52:29 AM  1006    218745   91.00   30.00    0.00    0.00  121.00    61    156.00      0.00 1179088  581136   0.22      0.00  18440.00      0.00       0  perf_experiment

# Time        UID       PID    %usr %system  %guest   %wait    %CPU   CPU  minflt/s  majflt/s     VSZ     RSS   %MEM   kB_rd/s   kB_wr/s kB_ccwr/s iodelay  Command
01:52:30 AM  1006    218745   89.00   31.00    0.00    0.00  120.00    61  32826.00      0.00 1179088  581948   0.22      0.00  16392.00      0.00       0  perf_experiment

# Time        UID       PID    %usr %system  %guest   %wait    %CPU   CPU  minflt/s  majflt/s     VSZ     RSS   %MEM   kB_rd/s   kB_wr/s kB_ccwr/s iodelay  Command
01:52:31 AM  1006    218745  105.00   57.00    0.00    0.00  162.00    61   9117.00      0.00 1179088  582356   0.22      0.00  65544.00      0.00       0  perf_experiment

# Time        UID       PID    %usr %system  %guest   %wait    %CPU   CPU  minflt/s  majflt/s     VSZ     RSS   %MEM   kB_rd/s   kB_wr/s kB_ccwr/s iodelay  Command
01:52:32 AM  1006    218745   91.00   69.00    0.00    0.00  160.00    61   3426.00      0.00 1179088  582376   0.22      0.00  58888.00      0.00       0  perf_experiment

# Time        UID       PID    %usr %system  %guest   %wait    %CPU   CPU  minflt/s  majflt/s     VSZ     RSS   %MEM   kB_rd/s   kB_wr/s kB_ccwr/s iodelay  Command
01:52:33 AM  1006    218745  102.00   57.00    0.00    0.00  159.00    61   1300.00      0.00 1179612  582916   0.22      0.00  59400.00      0.00       0  perf_experiment

# Time        UID       PID    %usr %system  %guest   %wait    %CPU   CPU  minflt/s  majflt/s     VSZ     RSS   %MEM   kB_rd/s   kB_wr/s kB_ccwr/s iodelay  Command
01:52:34 AM  1006    218745  101.00   58.00    0.00    0.00  159.00    61   2321.00      0.00 1179088  582480   0.22      0.00  57864.00      0.00       0  perf_experiment

# Time        UID       PID    %usr %system  %guest   %wait    %CPU   CPU  minflt/s  majflt/s     VSZ     RSS   %MEM   kB_rd/s   kB_wr/s kB_ccwr/s iodelay  Command
01:52:35 AM  1006    218745  112.00   70.00    0.00    0.00  182.00    61   5747.00      0.00 1179088  582492   0.22      0.00 100360.00      0.00       0  perf_experiment

# Time        UID       PID    %usr %system  %guest   %wait    %CPU   CPU  minflt/s  majflt/s     VSZ     RSS   %MEM   kB_rd/s   kB_wr/s kB_ccwr/s iodelay  Command
01:52:36 AM  1006    218745  111.00   66.00    0.00    0.00  177.00    61   3832.00      0.00 1179612  582952   0.22      0.00  89604.00      0.00       0  perf_experiment

# Time        UID       PID    %usr %system  %guest   %wait    %CPU   CPU  minflt/s  majflt/s     VSZ     RSS   %MEM   kB_rd/s   kB_wr/s kB_ccwr/s iodelay  Command
01:52:37 AM  1006    218745  110.00   69.00    0.00    0.00  179.00    61   5173.00      0.00 1180136  583152   0.22      0.00  86536.00      0.00       0  perf_experiment

# Time        UID       PID    %usr %system  %guest   %wait    %CPU   CPU  minflt/s  majflt/s     VSZ     RSS   %MEM   kB_rd/s   kB_wr/s kB_ccwr/s iodelay  Command
01:52:38 AM  1006    218745  102.00   74.00    0.00    0.00  176.00    61   4122.00      0.00 1179088  582672   0.22      0.00  88584.00      0.00       0  perf_experiment

# Time        UID       PID    %usr %system  %guest   %wait    %CPU   CPU  minflt/s  majflt/s     VSZ     RSS   %MEM   kB_rd/s   kB_wr/s kB_ccwr/s iodelay  Command
01:52:39 AM  1006    218745  104.00   79.00    0.00    0.00  183.00    61   4307.00      0.00 1180136  583500   0.22      0.00  93704.00      0.00       0  perf_experiment

# Time        UID       PID    %usr %system  %guest   %wait    %CPU   CPU  minflt/s  majflt/s     VSZ     RSS   %MEM   kB_rd/s   kB_wr/s kB_ccwr/s iodelay  Command
01:52:40 AM  1006    218745  107.00   90.00    0.00    0.00  197.00    62   9764.00      0.00 1179612  582664   0.22      0.00 128520.00      0.00       0  perf_experiment

# Time        UID       PID    %usr %system  %guest   %wait    %CPU   CPU  minflt/s  majflt/s     VSZ     RSS   %MEM   kB_rd/s   kB_wr/s kB_ccwr/s iodelay  Command
01:52:41 AM  1006    218745  108.00   85.00    0.00    0.00  193.00    62   8662.00      0.00 1179088  582816   0.22      0.00 118280.00      0.00       0  perf_experiment

# Time        UID       PID    %usr %system  %guest   %wait    %CPU   CPU  minflt/s  majflt/s     VSZ     RSS   %MEM   kB_rd/s   kB_wr/s kB_ccwr/s iodelay  Command
01:52:42 AM  1006    218745  104.00   90.00    0.00    0.00  194.00    62  12617.00      0.00 1179088  582860   0.22      0.00 123400.00      0.00       0  perf_experiment

# Time        UID       PID    %usr %system  %guest   %wait    %CPU   CPU  minflt/s  majflt/s     VSZ     RSS   %MEM   kB_rd/s   kB_wr/s kB_ccwr/s iodelay  Command
01:52:43 AM  1006    218745  116.00   80.00    0.00    0.00  196.00    62  15973.00      0.00 1180136  583696   0.22      0.00 120840.00      0.00       0  perf_experiment

# Time        UID       PID    %usr %system  %guest   %wait    %CPU   CPU  minflt/s  majflt/s     VSZ     RSS   %MEM   kB_rd/s   kB_wr/s kB_ccwr/s iodelay  Command
01:52:44 AM  1006    218745  105.00   87.00    0.00    0.00  192.00    62  12633.00      0.00 1179088  582972   0.22      0.00 124932.00      0.00       0  perf_experiment

# Time        UID       PID    %usr %system  %guest   %wait    %CPU   CPU  minflt/s  majflt/s     VSZ     RSS   %MEM   kB_rd/s   kB_wr/s kB_ccwr/s iodelay  Command
01:52:45 AM  1006    218745  100.00   35.00    0.00    0.00  135.00    63   5311.00      0.00 1179612  582896   0.22      0.00  48136.00      0.00       0  perf_experiment

# Time        UID       PID    %usr %system  %guest   %wait    %CPU   CPU  minflt/s  majflt/s     VSZ     RSS   %MEM   kB_rd/s   kB_wr/s kB_ccwr/s iodelay  Command
01:52:46 AM  1006    218745   89.00   33.00    0.00    0.00  122.00    63   9745.00      0.00 1191640  595240   0.23      0.00  22024.00      0.00       0  perf_experiment

# Time        UID       PID    %usr %system  %guest   %wait    %CPU   CPU  minflt/s  majflt/s     VSZ     RSS   %MEM   kB_rd/s   kB_wr/s kB_ccwr/s iodelay  Command
01:52:47 AM  1006    218745   99.00   68.00    0.00    0.00  167.00    63  17933.00      0.00 1194636  597960   0.23      0.00  76296.00      0.00       0  perf_experiment

# Time        UID       PID    %usr %system  %guest   %wait    %CPU   CPU  minflt/s  majflt/s     VSZ     RSS   %MEM   kB_rd/s   kB_wr/s kB_ccwr/s iodelay  Command
01:52:48 AM  1006    218745  104.00   67.00    0.00    0.00  171.00    63  17749.00      0.00 1195816  599676   0.23      0.00  82952.00      0.00       0  perf_experiment

# Time        UID       PID    %usr %system  %guest   %wait    %CPU   CPU  minflt/s  majflt/s     VSZ     RSS   %MEM   kB_rd/s   kB_wr/s kB_ccwr/s iodelay  Command
01:52:49 AM  1006    218745   97.00   73.00    0.00    0.00  170.00    63  15753.00      0.00 1196908  600764   0.23      0.00  83460.00      0.00       0  perf_experiment

# Time        UID       PID    %usr %system  %guest   %wait    %CPU   CPU  minflt/s  majflt/s     VSZ     RSS   %MEM   kB_rd/s   kB_wr/s kB_ccwr/s iodelay  Command
01:52:50 AM  1006    218745  113.00   62.00    0.00    0.00  175.00    63   9742.00      0.00 1196384  600480   0.23      0.00  85000.00      0.00       0  perf_experiment

# Time        UID       PID    %usr %system  %guest   %wait    %CPU   CPU  minflt/s  majflt/s     VSZ     RSS   %MEM   kB_rd/s   kB_wr/s kB_ccwr/s iodelay  Command
01:52:51 AM  1006    218745   96.00   48.00    0.00    0.00  144.00    63   5190.00      0.00 1195336  599468   0.23      0.00  51204.00      0.00       0  perf_experiment

# Time        UID       PID    %usr %system  %guest   %wait    %CPU   CPU  minflt/s  majflt/s     VSZ     RSS   %MEM   kB_rd/s   kB_wr/s kB_ccwr/s iodelay  Command
01:52:52 AM  1006    218745   91.00   29.00    0.00    0.00  120.00    63      1.00      0.00 1195336  599468   0.23      0.00  20488.00      0.00       0  perf_experiment

# Time        UID       PID    %usr %system  %guest   %wait    %CPU   CPU  minflt/s  majflt/s     VSZ     RSS   %MEM   kB_rd/s   kB_wr/s kB_ccwr/s iodelay  Command
01:52:53 AM  1006    218745   95.00   26.00    0.00    0.00  121.00    63      1.00      0.00 1195336  599468   0.23      0.00  20488.00      0.00       0  perf_experiment

# Time        UID       PID    %usr %system  %guest   %wait    %CPU   CPU  minflt/s  majflt/s     VSZ     RSS   %MEM   kB_rd/s   kB_wr/s kB_ccwr/s iodelay  Command
01:52:54 AM  1006    218745   91.00   29.00    0.00    0.00  120.00    63     10.00      0.00 1193980  598180   0.23      0.00  17928.00      0.00       0  perf_experiment

# Time        UID       PID    %usr %system  %guest   %wait    %CPU   CPU  minflt/s  majflt/s     VSZ     RSS   %MEM   kB_rd/s   kB_wr/s kB_ccwr/s iodelay  Command
01:52:55 AM  1006    218745   90.00   30.00    0.00    0.00  120.00    63     31.00      0.00 1193056  597268   0.23      0.00  18952.00      0.00       0  perf_experiment

# Time        UID       PID    %usr %system  %guest   %wait    %CPU   CPU  minflt/s  majflt/s     VSZ     RSS   %MEM   kB_rd/s   kB_wr/s kB_ccwr/s iodelay  Command
01:52:56 AM  1006    218745   91.00   28.00    0.00    0.00  119.00    16  56388.00      0.00 1193056  597492   0.23      0.00  17416.00      0.00       0  perf_experiment

# Time        UID       PID    %usr %system  %guest   %wait    %CPU   CPU  minflt/s  majflt/s     VSZ     RSS   %MEM   kB_rd/s   kB_wr/s kB_ccwr/s iodelay  Command
01:52:57 AM  1006    218745   85.00   35.00    0.00    0.00  120.00    16   8776.00      0.00 1193056  597652   0.23      0.00  18440.00      0.00       0  perf_experiment

# Time        UID       PID    %usr %system  %guest   %wait    %CPU   CPU  minflt/s  majflt/s     VSZ     RSS   %MEM   kB_rd/s   kB_wr/s kB_ccwr/s iodelay  Command
01:52:58 AM  1006    218745   81.00   41.00    0.00    0.00  122.00    16    343.00      0.00 1193056  597728   0.23      0.00  20332.00      0.00       0  perf_experiment

# Time        UID       PID    %usr %system  %guest   %wait    %CPU   CPU  minflt/s  majflt/s     VSZ     RSS   %MEM   kB_rd/s   kB_wr/s kB_ccwr/s iodelay  Command
01:52:59 AM  1006    218745   90.00   31.00    0.00    0.00  121.00    16   1486.00      0.00 1193056  599328   0.23      0.00  16548.00      0.00       0  perf_experiment

# Time        UID       PID    %usr %system  %guest   %wait    %CPU   CPU  minflt/s  majflt/s     VSZ     RSS   %MEM   kB_rd/s   kB_wr/s kB_ccwr/s iodelay  Command
01:53:00 AM  1006    218745   90.00   38.00    0.00    0.00  128.00    16   1086.00      0.00 1193056  600396   0.23      0.00  25608.00      0.00       0  perf_experiment

# Time        UID       PID    %usr %system  %guest   %wait    %CPU   CPU  minflt/s  majflt/s     VSZ     RSS   %MEM   kB_rd/s   kB_wr/s kB_ccwr/s iodelay  Command
01:53:01 AM  1006    218745   89.00   58.00    0.00    0.00  147.00    16   1542.00      0.00 1193728  599772   0.23      0.00  49672.00      0.00       0  perf_experiment

# Time        UID       PID    %usr %system  %guest   %wait    %CPU   CPU  minflt/s  majflt/s     VSZ     RSS   %MEM   kB_rd/s   kB_wr/s kB_ccwr/s iodelay  Command
01:53:02 AM  1006    218745   97.00   54.00    0.00    0.00  151.00    16  31764.00      0.00 1193728  600344   0.23      0.00  48648.00      0.00       0  perf_experiment

# Time        UID       PID    %usr %system  %guest   %wait    %CPU   CPU  minflt/s  majflt/s     VSZ     RSS   %MEM   kB_rd/s   kB_wr/s kB_ccwr/s iodelay  Command
01:53:03 AM  1006    218745   92.00   56.00    0.00    0.00  148.00    16  17337.00      0.00 1193728  600372   0.23      0.00  52744.00      0.00       0  perf_experiment

# Time        UID       PID    %usr %system  %guest   %wait    %CPU   CPU  minflt/s  majflt/s     VSZ     RSS   %MEM   kB_rd/s   kB_wr/s kB_ccwr/s iodelay  Command
01:53:04 AM  1006    218745  106.00   50.00    0.00    0.00  156.00    16   2099.00      0.00 1193728  600432   0.23      0.00  65544.00      0.00       0  perf_experiment

# Time        UID       PID    %usr %system  %guest   %wait    %CPU   CPU  minflt/s  majflt/s     VSZ     RSS   %MEM   kB_rd/s   kB_wr/s kB_ccwr/s iodelay  Command
01:53:05 AM  1006    218745  100.00   63.00    0.00    1.00  163.00    16   1624.00      0.00 1193728  600472   0.23      0.00  77828.00      0.00       0  perf_experiment

# Time        UID       PID    %usr %system  %guest   %wait    %CPU   CPU  minflt/s  majflt/s     VSZ     RSS   %MEM   kB_rd/s   kB_wr/s kB_ccwr/s iodelay  Command
01:53:06 AM  1006    218745  103.00   66.00    0.00    0.00  169.00    16   1994.00      0.00 1193728  600524   0.23      0.00  80392.00      0.00       0  perf_experiment

# Time        UID       PID    %usr %system  %guest   %wait    %CPU   CPU  minflt/s  majflt/s     VSZ     RSS   %MEM   kB_rd/s   kB_wr/s kB_ccwr/s iodelay  Command
01:53:07 AM  1006    218745  103.00   67.00    0.00    0.00  170.00    16   1296.00      0.00 1193728  600588   0.23      0.00  80392.00      0.00       0  perf_experiment

# Time        UID       PID    %usr %system  %guest   %wait    %CPU   CPU  minflt/s  majflt/s     VSZ     RSS   %MEM   kB_rd/s   kB_wr/s kB_ccwr/s iodelay  Command