1,Faster,10,5000000,2500000,128,512,196415,3054744


resource usage stats

Linux 5.4.0-42-generic (arcon1) 	10/24/2020 	_x86_64_	(64 CPU)

# Time        UID       PID    %usr %system  %guest   %wait    %CPU   CPU  minflt/s  majflt/s     VSZ     RSS   %MEM   kB_rd/s   kB_wr/s kB_ccwr/s iodelay  Command
09:58:25 PM  1006    217887   79.00   20.00    0.00    0.00   99.00    24 144431.00      0.00  590180  582536   0.22      0.00      4.00      0.00       0  perf_experiment

# Time        UID       PID    %usr %system  %guest   %wait    %CPU   CPU  minflt/s  majflt/s     VSZ     RSS   %MEM   kB_rd/s   kB_wr/s kB_ccwr/s iodelay  Command
09:58:26 PM  1006    217887   79.00    2.00    0.00    0.00   81.00    24      2.00      0.00  590180  582536   0.22      0.00 262144.00      0.00      19  perf_experiment

# Time        UID       PID    %usr %system  %guest   %wait    %CPU   CPU  minflt/s  majflt/s     VSZ     RSS   %MEM   kB_rd/s   kB_wr/s kB_ccwr/s iodelay  Command
09:58:27 PM  1006    217887   79.00    1.00    0.00    0.00   80.00    24      2.00      0.00  590180  582536   0.22      0.00 262144.00      0.00      19  perf_experiment

# Time        UID       PID    %usr %system  %guest   %wait    %CPU   CPU  minflt/s  majflt/s     VSZ     RSS   %MEM   kB_rd/s   kB_wr/s kB_ccwr/s iodelay  Command
09:58:28 PM  1006    217887   78.00    3.00    0.00    0.00   81.00    24      1.00      0.00  590180  582536   0.22      0.00 262144.00      0.00      20  perf_experiment

# Time        UID       PID    %usr %system  %guest   %wait    %CPU   CPU  minflt/s  majflt/s     VSZ     RSS   %MEM   kB_rd/s   kB_wr/s kB_ccwr/s iodelay  Command
09:58:29 PM  1006    217887   81.00    2.00    0.00    0.00   83.00    24      1.00      0.00  590180  582536   0.22      0.00 229376.00      0.00      17  perf_experiment

# Time        UID       PID    %usr %system  %guest   %wait    %CPU   CPU  minflt/s  majflt/s     VSZ     RSS   %MEM   kB_rd/s   kB_wr/s kB_ccwr/s iodelay  Command
09:58:30 PM  1006    217887   78.00    1.00    0.00    0.00   79.00    24      1.00      0.00  590180  582536   0.22      0.00 262144.00      0.00      20  perf_experiment

# Time        UID       PID    %usr %system  %guest   %wait    %CPU   CPU  minflt/s  majflt/s     VSZ     RSS   %MEM   kB_rd/s   kB_wr/s kB_ccwr/s iodelay  Command
09:58:31 PM  1006    217887   80.00    2.00    0.00    0.00   82.00    24      2.00      0.00  590180  582980   0.22      0.00 229376.00      0.00      18  perf_experiment

# Time        UID       PID    %usr %system  %guest   %wait    %CPU   CPU  minflt/s  majflt/s     VSZ     RSS   %MEM   kB_rd/s   kB_wr/s kB_ccwr/s iodelay  Command
09:58:32 PM  1006    217887   79.00    2.00    0.00    0.00   81.00    24      0.00      0.00  590180  582980   0.22      0.00 262144.00      0.00      19  perf_experiment

# Time        UID       PID    %usr %system  %guest   %wait    %CPU   CPU  minflt/s  majflt/s     VSZ     RSS   %MEM   kB_rd/s   kB_wr/s kB_ccwr/s iodelay  Command
09:58:33 PM  1006    217887   82.00    1.00    0.00    0.00   83.00    24      1.00      0.00  590180  582980   0.22      0.00 229376.00      0.00      17  perf_experiment

# Time        UID       PID    %usr %system  %guest   %wait    %CPU   CPU  minflt/s  majflt/s     VSZ     RSS   %MEM   kB_rd/s   kB_wr/s kB_ccwr/s iodelay  Command
09:58:34 PM  1006    217887   80.00    2.00    0.00    0.00   82.00    24      1.00      0.00  590312  582980   0.22      0.00 229376.00      0.00      18  perf_experiment

# Time        UID       PID    %usr %system  %guest   %wait    %CPU   CPU  minflt/s  majflt/s     VSZ     RSS   %MEM   kB_rd/s   kB_wr/s kB_ccwr/s iodelay  Command
09:58:35 PM  1006    217887   80.00    3.00    0.00    0.00   83.00    24      2.00      0.00  590312  582980   0.22      0.00 229376.00      0.00      17  perf_experiment

# Time        UID       PID    %usr %system  %guest   %wait    %CPU   CPU  minflt/s  majflt/s     VSZ     RSS   %MEM   kB_rd/s   kB_wr/s kB_ccwr/s iodelay  Command
09:58:36 PM  1006    217887   82.00    2.00    0.00    0.00   84.00    24      0.00      0.00  590312  582980   0.22      0.00 229376.00      0.00      17  perf_experiment

# Time        UID       PID    %usr %system  %guest   %wait    %CPU   CPU  minflt/s  majflt/s     VSZ     RSS   %MEM   kB_rd/s   kB_wr/s kB_ccwr/s iodelay  Command
09:58:37 PM  1006    217887   82.00    1.00    0.00    0.00   83.00    24      0.00      0.00  590312  582980   0.22      0.00 229376.00      0.00      17  perf_experiment

# Time        UID       PID    %usr %system  %guest   %wait    %CPU   CPU  minflt/s  majflt/s     VSZ     RSS   %MEM   kB_rd/s   kB_wr/s kB_ccwr/s iodelay  Command
09:58:38 PM  1006    217887   82.00    2.00    0.00    0.00   84.00    24      1.00      0.00  590312  582980   0.22      0.00 229376.00      0.00      15  perf_experiment

# Time        UID       PID    %usr %system  %guest   %wait    %CPU   CPU  minflt/s  majflt/s     VSZ     RSS   %MEM   kB_rd/s   kB_wr/s kB_ccwr/s iodelay  Command
09:58:39 PM  1006    217887   82.00    1.00    0.00    0.00   83.00    24      1.00      0.00  590312  582980   0.22      0.00 196608.00      0.00      18  perf_experiment

# Time        UID       PID    %usr %system  %guest   %wait    %CPU   CPU  minflt/s  majflt/s     VSZ     RSS   %MEM   kB_rd/s   kB_wr/s kB_ccwr/s iodelay  Command
09:58:40 PM  1006    217887   95.00    2.00    0.00    0.00   97.00    24     40.00      0.00  658040  583148   0.22  10008.50  32768.00      0.00       2  perf_experiment

# Time        UID       PID    %usr %system  %guest   %wait    %CPU   CPU  minflt/s  majflt/s     VSZ     RSS   %MEM   kB_rd/s   kB_wr/s kB_ccwr/s iodelay  Command
09:58:41 PM  1006    217887   98.00    2.00    0.00    0.00  100.00    24      0.00      0.00  658040  583148   0.22  11248.00      0.00      0.00       0  perf_experiment

# Time        UID       PID    %usr %system  %guest   %wait    %CPU   CPU  minflt/s  majflt/s     VSZ     RSS   %MEM   kB_rd/s   kB_wr/s kB_ccwr/s iodelay  Command
09:58:42 PM  1006    217887   96.00    4.00    0.00    0.00  100.00    24   8127.00      0.00  658040  583204   0.22  11186.50      0.00      0.00       0  perf_experiment

# Time        UID       PID    %usr %system  %guest   %wait    %CPU   CPU  minflt/s  majflt/s     VSZ     RSS   %MEM   kB_rd/s   kB_wr/s kB_ccwr/s iodelay  Command
09:58:43 PM  1006    217887   97.00    3.00    0.00    0.00  100.00    24   1188.00      0.00  658040  583204   0.22  11289.00      0.00      0.00       0  perf_experiment

# Time        UID       PID    %usr %system  %guest   %wait    %CPU   CPU  minflt/s  majflt/s     VSZ     RSS   %MEM   kB_rd/s   kB_wr/s kB_ccwr/s iodelay  Command
09:58:44 PM  1006    217887   99.00    1.00    0.00    0.00  100.00    24    524.00      0.00  658040  583204   0.22  11299.00      0.00      0.00       0  perf_experiment

# Time        UID       PID    %usr %system  %guest   %wait    %CPU   CPU  minflt/s  majflt/s     VSZ     RSS   %MEM   kB_rd/s   kB_wr/s kB_ccwr/s iodelay  Command
09:58:45 PM  1006    217887   98.00    2.00    0.00    0.00  100.00    24    417.00      0.00  658040  583220   0.22  11276.50      0.00      0.00       0  perf_experiment

# Time        UID       PID    %usr %system  %guest   %wait    %CPU   CPU  minflt/s  majflt/s     VSZ     RSS   %MEM   kB_rd/s   kB_wr/s kB_ccwr/s iodelay  Command
09:58:46 PM  1006    217887   99.00    1.00    0.00    0.00  100.00    24    554.00      0.00  658040  583220   0.22  11212.50      0.00      0.00       0  perf_experiment

# Time        UID       PID    %usr %system  %guest   %wait    %CPU   CPU  minflt/s  majflt/s     VSZ     RSS   %MEM   kB_rd/s   kB_wr/s kB_ccwr/s iodelay  Command
09:58:47 PM  1006    217887   99.00    1.00    0.00    0.00  100.00    24    629.00      0.00  658040  583220   0.22  11287.00      0.00      0.00       0  perf_experiment

# Time        UID       PID    %usr %system  %guest   %wait    %CPU   CPU  minflt/s  majflt/s     VSZ     RSS   %MEM   kB_rd/s   kB_wr/s kB_ccwr/s iodelay  Command
09:58:48 PM  1006    217887   97.00    3.00    0.00    0.00  100.00    24    727.00      0.00  658040  583252   0.22  11251.00      0.00      0.00       0  perf_experiment

# Time        UID       PID    %usr %system  %guest   %wait    %CPU   CPU  minflt/s  majflt/s     VSZ     RSS   %MEM   kB_rd/s   kB_wr/s kB_ccwr/s iodelay  Command
09:58:49 PM  1006    217887  100.00    0.00    0.00    0.00  100.00    24    661.00      0.00  658152  583304   0.22  11264.50      0.00      0.00       0  perf_experiment

# Time        UID       PID    %usr %system  %guest   %wait    %CPU   CPU  minflt/s  majflt/s     VSZ     RSS   %MEM   kB_rd/s   kB_wr/s kB_ccwr/s iodelay  Command
09:58:50 PM  1006    217887   99.00    1.00    0.00    0.00  100.00    24    642.00      0.00  658152  583312   0.22  11409.50      0.00      0.00       0  perf_experiment

# Time        UID       PID    %usr %system  %guest   %wait    %CPU   CPU  minflt/s  majflt/s     VSZ     RSS   %MEM   kB_rd/s   kB_wr/s kB_ccwr/s iodelay  Command
09:58:51 PM  1006    217887   97.00    3.00    0.00    0.00  100.00    24    661.00      0.00  658152  583352   0.22  11405.00      0.00      0.00       0  perf_experiment

# Time        UID       PID    %usr %system  %guest   %wait    %CPU   CPU  minflt/s  majflt/s     VSZ     RSS   %MEM   kB_rd/s   kB_wr/s kB_ccwr/s iodelay  Command
09:58:52 PM  1006    217887   99.00    1.00    0.00    0.00  100.00    24    631.00      0.00  658152  583352   0.22  11405.00      0.00      0.00       0  perf_experiment

# Time        UID       PID    %usr %system  %guest   %wait    %CPU   CPU  minflt/s  majflt/s     VSZ     RSS   %MEM   kB_rd/s   kB_wr/s kB_ccwr/s iodelay  Command
09:58:53 PM  1006    217887   98.00    2.00    0.00    0.00  100.00    24    634.00      0.00  658152  583352   0.22  11372.00      0.00      0.00       0  perf_experiment

# Time        UID       PID    %usr %system  %guest   %wait    %CPU   CPU  minflt/s  majflt/s     VSZ     RSS   %MEM   kB_rd/s   kB_wr/s kB_ccwr/s iodelay  Command
09:58:54 PM  1006    217887   97.00    3.00    0.00    0.00  100.00    24    599.00      0.00  658284  583416   0.22  11315.50      0.00      0.00       0  perf_experiment

# Time        UID       PID    %usr %system  %guest   %wait    %CPU   CPU  minflt/s  majflt/s     VSZ     RSS   %MEM   kB_rd/s   kB_wr/s kB_ccwr/s iodelay  Command
09:58:55 PM  1006    217887   99.00    1.00    0.00    0.00  100.00    24    591.00      0.00  658284  583448   0.22  11423.00      0.00      0.00       0  perf_experiment

# Time        UID       PID    %usr %system  %guest   %wait    %CPU   CPU  minflt/s  majflt/s     VSZ     RSS   %MEM   kB_rd/s   kB_wr/s kB_ccwr/s iodelay  Command
09:58:56 PM  1006    217887   98.00    2.00    0.00    0.00  100.00    24   8888.00      0.00  658284  583488   0.22  11260.50      0.00      0.00       0  perf_experiment

# Time        UID       PID    %usr %system  %guest   %wait    %CPU   CPU  minflt/s  majflt/s     VSZ     RSS   %MEM   kB_rd/s   kB_wr/s kB_ccwr/s iodelay  Command
09:58:57 PM  1006    217887   98.00    2.00    0.00    0.00  100.00    24   1241.00      0.00  658284  583488   0.22  11436.00      0.00      0.00       0  perf_experiment

# Time        UID       PID    %usr %system  %guest   %wait    %CPU   CPU  minflt/s  majflt/s     VSZ     RSS   %MEM   kB_rd/s   kB_wr/s kB_ccwr/s iodelay  Command
09:58:58 PM  1006    217887   98.00    2.00    0.00    0.00  100.00    24    829.00      0.00  658284  583488   0.22  11381.00      0.00      0.00       0  perf_experiment

# Time        UID       PID    %usr %system  %guest   %wait    %CPU   CPU  minflt/s  majflt/s     VSZ     RSS   %MEM   kB_rd/s   kB_wr/s kB_ccwr/s iodelay  Command
09:58:59 PM  1006    217887   98.00    2.00    0.00    0.00  100.00    24    704.00      0.00  658284  583512   0.22  11450.00      0.00      0.00       0  perf_experiment

# Time        UID       PID    %usr %system  %guest   %wait    %CPU   CPU  minflt/s  majflt/s     VSZ     RSS   %MEM   kB_rd/s   kB_wr/s kB_ccwr/s iodelay  Command
09:59:00 PM  1006    217887   98.00    2.00    0.00    0.00  100.00    24    667.00      0.00  658284  583512   0.22  11360.50      0.00      0.00       0  perf_experiment

# Time        UID       PID    %usr %system  %guest   %wait    %CPU   CPU  minflt/s  majflt/s     VSZ     RSS   %MEM   kB_rd/s   kB_wr/s kB_ccwr/s iodelay  Command
09:59:01 PM  1006    217887   98.00    2.00    0.00    0.00  100.00    24    637.00      0.00  658420  583576   0.22  11351.00      0.00      0.00       0  perf_experiment

# Time        UID       PID    %usr %system  %guest   %wait    %CPU   CPU  minflt/s  majflt/s     VSZ     RSS   %MEM   kB_rd/s   kB_wr/s kB_ccwr/s iodelay  Command
09:59:02 PM  1006    217887  100.00    0.00    0.00    0.00  100.00    24    638.00      0.00  658420  583608   0.22  11412.50      0.00      0.00       0  perf_experiment

# Time        UID       PID    %usr %system  %guest   %wait    %CPU   CPU  minflt/s  majflt/s     VSZ     RSS   %MEM   kB_rd/s   kB_wr/s kB_ccwr/s iodelay  Command
09:59:03 PM  1006    217887   99.00    1.00    0.00    0.00  100.00    24    640.00      0.00  658420  583608   0.22  11383.00      0.00      0.00       0  perf_experiment

# Time        UID       PID    %usr %system  %guest   %wait    %CPU   CPU  minflt/s  majflt/s     VSZ     RSS   %MEM   kB_rd/s   kB_wr/s kB_ccwr/s iodelay  Command
09:59:04 PM  1006    217887   99.00    1.00    0.00    0.00  100.00    24    604.00      0.00  658420  583616   0.22  11402.00      0.00      0.00       0  perf_experiment

# Time        UID       PID    %usr %system  %guest   %wait    %CPU   CPU  minflt/s  majflt/s     VSZ     RSS   %MEM   kB_rd/s   kB_wr/s kB_ccwr/s iodelay  Command
09:59:05 PM  1006    217887   99.00    1.00    0.00    0.00  100.00    24    633.00      0.00  658556  583632   0.22  11392.00      0.00      0.00       0  perf_experiment

# Time        UID       PID    %usr %system  %guest   %wait    %CPU   CPU  minflt/s  majflt/s     VSZ     RSS   %MEM   kB_rd/s   kB_wr/s kB_ccwr/s iodelay  Command
09:59:06 PM  1006    217887   96.00    3.00    0.00    0.00   99.00    24    627.00      0.00  658548  583712   0.22  11372.50      0.00      0.00       0  perf_experiment

# Time        UID       PID    %usr %system  %guest   %wait    %CPU   CPU  minflt/s  majflt/s     VSZ     RSS   %MEM   kB_rd/s   kB_wr/s kB_ccwr/s iodelay  Command
09:59:07 PM  1006    217887   98.00    3.00    0.00    0.00  101.00    24    648.00      0.00  658548  583720   0.22  11425.50      0.00      0.00       0  perf_experiment

# Time        UID       PID    %usr %system  %guest   %wait    %CPU   CPU  minflt/s  majflt/s     VSZ     RSS   %MEM   kB_rd/s   kB_wr/s kB_ccwr/s iodelay  Command
09:59:08 PM  1006    217887   99.00    1.00    0.00    0.00  100.00    24    590.00      0.00  658548  583728   0.22  11402.00      0.00      0.00       0  perf_experiment

# Time        UID       PID    %usr %system  %guest   %wait    %CPU   CPU  minflt/s  majflt/s     VSZ     RSS   %MEM   kB_rd/s   kB_wr/s kB_ccwr/s iodelay  Command
09:59:09 PM  1006    217887   98.00    2.00    0.00    0.00  100.00    24    614.00      0.00  658548  583728   0.22  11416.50      0.00      0.00       0  perf_experiment

# Time        UID       PID    %usr %system  %guest   %wait    %CPU   CPU  minflt/s  majflt/s     VSZ     RSS   %MEM   kB_rd/s   kB_wr/s kB_ccwr/s iodelay  Command
09:59:10 PM  1006    217887   97.00    2.00    0.00    0.00   99.00    24    597.00      0.00  658548  583768   0.22  11450.50      0.00      0.00       0  perf_experiment

# Time        UID       PID    %usr %system  %guest   %wait    %CPU   CPU  minflt/s  majflt/s     VSZ     RSS   %MEM   kB_rd/s   kB_wr/s kB_ccwr/s iodelay  Command
09:59:11 PM  1006    217887   98.00    3.00    0.00    0.00  101.00    24    569.00      0.00  658684  583788   0.22  11422.50      0.00      0.00       0  perf_experiment

# Time        UID       PID    %usr %system  %guest   %wait    %CPU   CPU  minflt/s  majflt/s     VSZ     RSS   %MEM   kB_rd/s   kB_wr/s kB_ccwr/s iodelay  Command
09:59:12 PM  1006    217887   98.00    2.00    0.00    0.00  100.00    24    569.00      0.00  658684  583828   0.22  11393.50      0.00      0.00       0  perf_experiment

# Time        UID       PID    %usr %system  %guest   %wait    %CPU   CPU  minflt/s  majflt/s     VSZ     RSS   %MEM   kB_rd/s   kB_wr/s kB_ccwr/s iodelay  Command
09:59:13 PM  1006    217887   98.00    2.00    0.00    0.00  100.00    24    642.00      0.00  658684  583860   0.22  11380.00      0.00      0.00       0  perf_experiment

# Time        UID       PID    %usr %system  %guest   %wait    %CPU   CPU  minflt/s  majflt/s     VSZ     RSS   %MEM   kB_rd/s   kB_wr/s kB_ccwr/s iodelay  Command
09:59:14 PM  1006    217887   97.00    3.00    0.00    0.00  100.00    24   8879.00      0.00  658684  583860   0.22  11327.00      0.00      0.00       0  perf_experiment

# Time        UID       PID    %usr %system  %guest   %wait    %CPU   CPU  minflt/s  majflt/s     VSZ     RSS   %MEM   kB_rd/s   kB_wr/s kB_ccwr/s iodelay  Command
09:59:15 PM  1006    217887   98.00    2.00    0.00    0.00  100.00    24   1247.00      0.00  658684  583876   0.22  11356.50      0.00      0.00       0  perf_experiment

# Time        UID       PID    %usr %system  %guest   %wait    %CPU   CPU  minflt/s  majflt/s     VSZ     RSS   %MEM   kB_rd/s   kB_wr/s kB_ccwr/s iodelay  Command
09:59:16 PM  1006    217887   97.00    3.00    0.00    0.00  100.00    24    857.00      0.00  658684  583900   0.22  11365.50      0.00      0.00       0  perf_experiment

# Time        UID       PID    %usr %system  %guest   %wait    %CPU   CPU  minflt/s  majflt/s     VSZ     RSS   %MEM   kB_rd/s   kB_wr/s kB_ccwr/s iodelay  Command
09:59:17 PM  1006    217887   98.00    1.00    0.00    0.00   99.00    24    678.00      0.00  658816  583964   0.22  11386.00      0.00      0.00       0  perf_experiment

# Time        UID       PID    %usr %system  %guest   %wait    %CPU   CPU  minflt/s  majflt/s     VSZ     RSS   %MEM   kB_rd/s   kB_wr/s kB_ccwr/s iodelay  Command
09:59:18 PM  1006    217887  100.00    1.00    0.00    0.00  101.00    24    672.00      0.00  658816  583964   0.22  11421.50      0.00      0.00       0  perf_experiment

# Time        UID       PID    %usr %system  %guest   %wait    %CPU   CPU  minflt/s  majflt/s     VSZ     RSS   %MEM   kB_rd/s   kB_wr/s kB_ccwr/s iodelay  Command
09:59:19 PM  1006    217887   99.00    1.00    0.00    0.00  100.00    24    613.00      0.00  658816  583996   0.22  11392.00      0.00      0.00       0  perf_experiment

# Time        UID       PID    %usr %system  %guest   %wait    %CPU   CPU  minflt/s  majflt/s     VSZ     RSS   %MEM   kB_rd/s   kB_wr/s kB_ccwr/s iodelay  Command
09:59:20 PM  1006    217887   99.00    1.00    0.00    0.00  100.00    24    591.00      0.00  658816  583996   0.22  11387.00      0.00      0.00       0  perf_experiment

# Time        UID       PID    %usr %system  %guest   %wait    %CPU   CPU  minflt/s  majflt/s     VSZ     RSS   %MEM   kB_rd/s   kB_wr/s kB_ccwr/s iodelay  Command
09:59:21 PM  1006    217887   98.00    2.00    0.00    0.00  100.00    24    629.00      0.00  658816  584044   0.22  11378.00      0.00      0.00       0  perf_experiment

# Time        UID       PID    %usr %system  %guest   %wait    %CPU   CPU  minflt/s  majflt/s     VSZ     RSS   %MEM   kB_rd/s   kB_wr/s kB_ccwr/s iodelay  Command
09:59:22 PM  1006    217887   98.00    3.00    0.00    0.00  101.00    24    652.00      0.00  658952  584092   0.22  11407.00      0.00      0.00       0  perf_experiment

# Time        UID       PID    %usr %system  %guest   %wait    %CPU   CPU  minflt/s  majflt/s     VSZ     RSS   %MEM   kB_rd/s   kB_wr/s kB_ccwr/s iodelay  Command
09:59:23 PM  1006    217887   98.00    2.00    0.00    0.00  100.00    24    610.00      0.00  658952  584100   0.22  11402.00      0.00      0.00       0  perf_experiment

# Time        UID       PID    %usr %system  %guest   %wait    %CPU   CPU  minflt/s  majflt/s     VSZ     RSS   %MEM   kB_rd/s   kB_wr/s kB_ccwr/s iodelay  Command
09:59:24 PM  1006    217887   98.00    1.00    0.00    0.00   99.00    24    594.00      0.00  658952  584116   0.22  11413.00      0.00      0.00       0  perf_experiment

# Time        UID       PID    %usr %system  %guest   %wait    %CPU   CPU  minflt/s  majflt/s     VSZ     RSS   %MEM   kB_rd/s   kB_wr/s kB_ccwr/s iodelay  Command
09:59:25 PM  1006    217887   98.00    2.00    0.00    0.00  100.00    24    597.00      0.00  658952  584132   0.22  11383.00      0.00      0.00       0  perf_experiment

# Time        UID       PID    %usr %system  %guest   %wait    %CPU   CPU  minflt/s  majflt/s     VSZ     RSS   %MEM   kB_rd/s   kB_wr/s kB_ccwr/s iodelay  Command
09:59:26 PM  1006    217887   99.00    1.00    0.00    0.00  100.00    24    581.00      0.00  658952  584164   0.22  11425.00      0.00      0.00       0  perf_experiment

# Time        UID       PID    %usr %system  %guest   %wait    %CPU   CPU  minflt/s  majflt/s     VSZ     RSS   %MEM   kB_rd/s   kB_wr/s kB_ccwr/s iodelay  Command
09:59:27 PM  1006    217887   98.00    2.00    0.00    0.00  100.00    24    593.00      0.00  658952  584164   0.22  11436.50      0.00      0.00       0  perf_experiment

# Time        UID       PID    %usr %system  %guest   %wait    %CPU   CPU  minflt/s  majflt/s     VSZ     RSS   %MEM   kB_rd/s   kB_wr/s kB_ccwr/s iodelay  Command
09:59:28 PM  1006    217887   97.00    4.00    0.00    0.00  101.00    24    623.00      0.00  659088  584196   0.22  11419.00      0.00      0.00       0  perf_experiment

# Time        UID       PID    %usr %system  %guest   %wait    %CPU   CPU  minflt/s  majflt/s     VSZ     RSS   %MEM   kB_rd/s   kB_wr/s kB_ccwr/s iodelay  Command
09:59:29 PM  1006    217887   98.00    1.00    0.00    0.00   99.00    24    645.00      0.00  659088  584256   0.22  11360.00      0.00      0.00       0  perf_experiment

# Time        UID       PID    %usr %system  %guest   %wait    %CPU   CPU  minflt/s  majflt/s     VSZ     RSS   %MEM   kB_rd/s   kB_wr/s kB_ccwr/s iodelay  Command
09:59:30 PM  1006    217887   98.00    2.00    0.00    0.00  100.00    24    597.00      0.00  659088  584288   0.22  11398.00      0.00      0.00       0  perf_experiment

# Time        UID       PID    %usr %system  %guest   %wait    %CPU   CPU  minflt/s  majflt/s     VSZ     RSS   %MEM   kB_rd/s   kB_wr/s kB_ccwr/s iodelay  Command
09:59:31 PM  1006    217887   98.00    2.00    0.00    0.00  100.00    24    593.00      0.00  659088  584288   0.22  11417.00      0.00      0.00       0  perf_experiment

# Time        UID       PID    %usr %system  %guest   %wait    %CPU   CPU  minflt/s  majflt/s     VSZ     RSS   %MEM   kB_rd/s   kB_wr/s kB_ccwr/s iodelay  Command
09:59:32 PM  1006    217887   98.00    2.00    0.00    0.00  100.00    24    580.00      0.00  659088  584304   0.22  11430.50      0.00      0.00       0  perf_experiment

# Time        UID       PID    %usr %system  %guest   %wait    %CPU   CPU  minflt/s  majflt/s     VSZ     RSS   %MEM   kB_rd/s   kB_wr/s kB_ccwr/s iodelay  Command
09:59:33 PM  1006    217887   97.00    3.00    0.00    0.00  100.00    24    592.00      0.00  659088  584304   0.22  11402.00      0.00      0.00       0  perf_experiment

# Time        UID       PID    %usr %system  %guest   %wait    %CPU   CPU  minflt/s  majflt/s     VSZ     RSS   %MEM   kB_rd/s   kB_wr/s kB_ccwr/s iodelay  Command
09:59:34 PM  1006    217887   99.00    1.00    0.00    0.00  100.00    24    525.00      0.00  659212  584360   0.22  11378.50      0.00      0.00       0  perf_experiment

# Time        UID       PID    %usr %system  %guest   %wait    %CPU   CPU  minflt/s  majflt/s     VSZ     RSS   %MEM   kB_rd/s   kB_wr/s kB_ccwr/s iodelay  Command
09:59:35 PM  1006    217887   95.00    5.00    0.00    0.00  100.00    24    569.00      0.00  659212  584368   0.22  11331.50      0.00      0.00       0  perf_experiment

# Time        UID       PID    %usr %system  %guest   %wait    %CPU   CPU  minflt/s  majflt/s     VSZ     RSS   %MEM   kB_rd/s   kB_wr/s kB_ccwr/s iodelay  Command
09:59:36 PM  1006    217887   99.01    0.00    0.00    0.00   99.01    24    525.74      0.00  659212  584400   0.22  11279.70      0.00      0.00       0  perf_experiment

# Time        UID       PID    %usr %system  %guest   %wait    %CPU   CPU  minflt/s  majflt/s     VSZ     RSS   %MEM   kB_rd/s   kB_wr/s kB_ccwr/s iodelay  Command
09:59:37 PM  1006    217887   97.00    3.00    0.00    0.00  100.00    24   7593.00      0.00  659212  584432   0.22  11287.00      0.00      0.00       0  perf_experiment

# Time        UID       PID    %usr %system  %guest   %wait    %CPU   CPU  minflt/s  majflt/s     VSZ     RSS   %MEM   kB_rd/s   kB_wr/s kB_ccwr/s iodelay  Command
09:59:38 PM  1006    217887   98.00    2.00    0.00    0.00  100.00    24   2289.00      0.00  659340  584448   0.22  11404.00      0.00      0.00       0  perf_experiment

# Time        UID       PID    %usr %system  %guest   %wait    %CPU   CPU  minflt/s  majflt/s     VSZ     RSS   %MEM   kB_rd/s   kB_wr/s kB_ccwr/s iodelay  Command
09:59:39 PM  1006    217887   96.00    4.00    0.00    0.00  100.00    24    905.00      0.00  659340  584472   0.22  11394.50      0.00      0.00       0  perf_experiment

# Time        UID       PID    %usr %system  %guest   %wait    %CPU   CPU  minflt/s  majflt/s     VSZ     RSS   %MEM   kB_rd/s   kB_wr/s kB_ccwr/s iodelay  Command
09:59:40 PM  1006    217887   99.00    1.00    0.00    0.00  100.00    24    655.00      0.00  659340  584496   0.22  11409.00      0.00      0.00       0  perf_experiment

# Time        UID       PID    %usr %system  %guest   %wait    %CPU   CPU  minflt/s  majflt/s     VSZ     RSS   %MEM   kB_rd/s   kB_wr/s kB_ccwr/s iodelay  Command
09:59:41 PM  1006    217887   99.00    1.00    0.00    0.00  100.00    24    680.00      0.00  659340  584528   0.22  11389.00      0.00      0.00       0  perf_experiment

# Time        UID       PID    %usr %system  %guest   %wait    %CPU   CPU  minflt/s  majflt/s     VSZ     RSS   %MEM   kB_rd/s   kB_wr/s kB_ccwr/s iodelay  Command
09:59:42 PM  1006    217887   98.00    2.00    0.00    0.00  100.00    24    572.00      0.00  659340  584544   0.22  11448.50      0.00      0.00       0  perf_experiment

# Time        UID       PID    %usr %system  %guest   %wait    %CPU   CPU  minflt/s  majflt/s     VSZ     RSS   %MEM   kB_rd/s   kB_wr/s kB_ccwr/s iodelay  Command
09:59:43 PM  1006    217887   99.00    1.00    0.00    0.00  100.00    24    596.00      0.00  659340  584560   0.22  11398.00      0.00      0.00       0  perf_experiment

# Time        UID       PID    %usr %system  %guest   %wait    %CPU   CPU  minflt/s  majflt/s     VSZ     RSS   %MEM   kB_rd/s   kB_wr/s kB_ccwr/s iodelay  Command
09:59:44 PM  1006    217887   98.00    2.00    0.00    0.00  100.00    24    590.00      0.00  659476  584616   0.22  11433.00      0.00      0.00       0  perf_experiment

# Time        UID       PID    %usr %system  %guest   %wait    %CPU   CPU  minflt/s  majflt/s     VSZ     RSS   %MEM   kB_rd/s   kB_wr/s kB_ccwr/s iodelay  Command
09:59:45 PM  1006    217887   98.00    2.00    0.00    0.00  100.00    24    545.00      0.00  659476  584644   0.22  11422.00      0.00      0.00       0  perf_experiment

# Time        UID       PID    %usr %system  %guest   %wait    %CPU   CPU  minflt/s  majflt/s     VSZ     RSS   %MEM   kB_rd/s   kB_wr/s kB_ccwr/s iodelay  Command
09:59:46 PM  1006    217887   99.00    1.00    0.00    0.00  100.00    24    591.00      0.00  659476  584644   0.22  11372.00      0.00      0.00       0  perf_experiment

# Time        UID       PID    %usr %system  %guest   %wait    %CPU   CPU  minflt/s  majflt/s     VSZ     RSS   %MEM   kB_rd/s   kB_wr/s kB_ccwr/s iodelay  Command
09:59:47 PM  1006    217887   98.00    2.00    0.00    0.00  100.00    24    645.00      0.00  659476  584652   0.22  11401.50      0.00      0.00       0  perf_experiment

# Time        UID       PID    %usr %system  %guest   %wait    %CPU   CPU  minflt/s  majflt/s     VSZ     RSS   %MEM   kB_rd/s   kB_wr/s kB_ccwr/s iodelay  Command
09:59:48 PM  1006    217887   98.00    2.00    0.00    0.00  100.00    24    609.00      0.00  659476  584668   0.22  11389.00      0.00      0.00       0  perf_experiment

# Time        UID       PID    %usr %system  %guest   %wait    %CPU   CPU  minflt/s  majflt/s     VSZ     RSS   %MEM   kB_rd/s   kB_wr/s kB_ccwr/s iodelay  Command
09:59:49 PM  1006    217887   99.00    1.00    0.00    0.00  100.00    24    640.00      0.00  659476  584692   0.22  11418.50      0.00      0.00       0  perf_experiment

# Time        UID       PID    %usr %system  %guest   %wait    %CPU   CPU  minflt/s  majflt/s     VSZ     RSS   %MEM   kB_rd/s   kB_wr/s kB_ccwr/s iodelay  Command
09:59:50 PM  1006    217887   97.00    3.00    0.00    0.00  100.00    24    633.00      0.00  659608  584716   0.22  11391.00      0.00      0.00       0  perf_experiment

# Time        UID       PID    %usr %system  %guest   %wait    %CPU   CPU  minflt/s  majflt/s     VSZ     RSS   %MEM   kB_rd/s   kB_wr/s kB_ccwr/s iodelay  Command
09:59:51 PM  1006    217887   97.00    3.00    0.00    0.00  100.00    24    650.00      0.00  659608  584756   0.22  11407.50      0.00      0.00       0  perf_experiment

# Time        UID       PID    %usr %system  %guest   %wait    %CPU   CPU  minflt/s  majflt/s     VSZ     RSS   %MEM   kB_rd/s   kB_wr/s kB_ccwr/s iodelay  Command
09:59:52 PM  1006    217887   99.00    1.00    0.00    0.00  100.00    24    630.00      0.00  659608  584780   0.22  11352.50      0.00      0.00       0  perf_experiment

# Time        UID       PID    %usr %system  %guest   %wait    %CPU   CPU  minflt/s  majflt/s     VSZ     RSS   %MEM   kB_rd/s   kB_wr/s kB_ccwr/s iodelay  Command