1,Faster,1,5000000,2500000,512,2048,271007,2213964


resource usage stats

Linux 5.4.0-42-generic (arcon1) 	10/24/2020 	_x86_64_	(64 CPU)

# Time        UID       PID    %usr %system  %guest   %wait    %CPU   CPU  minflt/s  majflt/s     VSZ     RSS   %MEM   kB_rd/s   kB_wr/s kB_ccwr/s iodelay  Command
11:41:51 PM  1006    218131   78.00   21.00    0.00    0.00   99.00    30 144433.00      0.00  590180  582748   0.22      0.00      4.00      0.00       0  perf_experiment

# Time        UID       PID    %usr %system  %guest   %wait    %CPU   CPU  minflt/s  majflt/s     VSZ     RSS   %MEM   kB_rd/s   kB_wr/s kB_ccwr/s iodelay  Command
11:41:52 PM  1006    218131   75.00    2.00    0.00    0.00   77.00    30      3.00      0.00  590180  582748   0.22      0.00 294912.00      0.00      22  perf_experiment

# Time        UID       PID    %usr %system  %guest   %wait    %CPU   CPU  minflt/s  majflt/s     VSZ     RSS   %MEM   kB_rd/s   kB_wr/s kB_ccwr/s iodelay  Command
11:41:53 PM  1006    218131   77.00    2.00    0.00    0.00   79.00    30      1.00      0.00  590180  582748   0.22      0.00 294912.00      0.00      19  perf_experiment

# Time        UID       PID    %usr %system  %guest   %wait    %CPU   CPU  minflt/s  majflt/s     VSZ     RSS   %MEM   kB_rd/s   kB_wr/s kB_ccwr/s iodelay  Command
11:41:54 PM  1006    218131   78.00    3.00    0.00    0.00   81.00    30      1.00      0.00  590180  582748   0.22      0.00 262144.00      0.00      22  perf_experiment

# Time        UID       PID    %usr %system  %guest   %wait    %CPU   CPU  minflt/s  majflt/s     VSZ     RSS   %MEM   kB_rd/s   kB_wr/s kB_ccwr/s iodelay  Command
11:41:55 PM  1006    218131   76.00    2.00    0.00    0.00   78.00    30      3.00      0.00  590180  582748   0.22      0.00 294912.00      0.00      22  perf_experiment

# Time        UID       PID    %usr %system  %guest   %wait    %CPU   CPU  minflt/s  majflt/s     VSZ     RSS   %MEM   kB_rd/s   kB_wr/s kB_ccwr/s iodelay  Command
11:41:56 PM  1006    218131   76.00    1.00    0.00    0.00   77.00    30      0.00      0.00  590180  582748   0.22      0.00 294912.00      0.00      22  perf_experiment

# Time        UID       PID    %usr %system  %guest   %wait    %CPU   CPU  minflt/s  majflt/s     VSZ     RSS   %MEM   kB_rd/s   kB_wr/s kB_ccwr/s iodelay  Command
11:41:57 PM  1006    218131   79.00    3.00    0.00    0.00   82.00    30      1.00      0.00  590180  583076   0.22      0.00 294912.00      0.00      19  perf_experiment

# Time        UID       PID    %usr %system  %guest   %wait    %CPU   CPU  minflt/s  majflt/s     VSZ     RSS   %MEM   kB_rd/s   kB_wr/s kB_ccwr/s iodelay  Command
11:41:58 PM  1006    218131   76.00    2.00    0.00    0.00   78.00    30      0.00      0.00  590180  583076   0.22      0.00 262144.00      0.00      22  perf_experiment

# Time        UID       PID    %usr %system  %guest   %wait    %CPU   CPU  minflt/s  majflt/s     VSZ     RSS   %MEM   kB_rd/s   kB_wr/s kB_ccwr/s iodelay  Command
11:41:59 PM  1006    218131   76.00    2.00    0.00    0.00   78.00    30      3.00      0.00  590316  583076   0.22      0.00 294912.00      0.00      21  perf_experiment

# Time        UID       PID    %usr %system  %guest   %wait    %CPU   CPU  minflt/s  majflt/s     VSZ     RSS   %MEM   kB_rd/s   kB_wr/s kB_ccwr/s iodelay  Command
11:42:00 PM  1006    218131   78.00    1.00    0.00    0.00   79.00    30      0.00      0.00  590316  583076   0.22      0.00 294912.00      0.00      20  perf_experiment

# Time        UID       PID    %usr %system  %guest   %wait    %CPU   CPU  minflt/s  majflt/s     VSZ     RSS   %MEM   kB_rd/s   kB_wr/s kB_ccwr/s iodelay  Command
11:42:01 PM  1006    218131   79.00    1.00    0.00    0.00   80.00    30      1.00      0.00  590316  583076   0.22      0.00 262144.00      0.00      21  perf_experiment

# Time        UID       PID    %usr %system  %guest   %wait    %CPU   CPU  minflt/s  majflt/s     VSZ     RSS   %MEM   kB_rd/s   kB_wr/s kB_ccwr/s iodelay  Command
11:42:02 PM  1006    218131   76.00    1.00    0.00    0.00   77.00    30      0.00      0.00  590316  583076   0.22      0.00 294912.00      0.00      23  perf_experiment

# Time        UID       PID    %usr %system  %guest   %wait    %CPU   CPU  minflt/s  majflt/s     VSZ     RSS   %MEM   kB_rd/s   kB_wr/s kB_ccwr/s iodelay  Command
11:42:03 PM  1006    218131   80.00    1.00    0.00    0.00   81.00    30      2.00      0.00  590316  583076   0.22      0.00 294912.00      0.00      20  perf_experiment

# Time        UID       PID    %usr %system  %guest   %wait    %CPU   CPU  minflt/s  majflt/s     VSZ     RSS   %MEM   kB_rd/s   kB_wr/s kB_ccwr/s iodelay  Command
11:42:04 PM  1006    218131   77.00    1.00    0.00    0.00   78.00    30      0.00      0.00  590316  583076   0.22      0.00 262144.00      0.00      22  perf_experiment

# Time        UID       PID    %usr %system  %guest   %wait    %CPU   CPU  minflt/s  majflt/s     VSZ     RSS   %MEM   kB_rd/s   kB_wr/s kB_ccwr/s iodelay  Command
11:42:05 PM  1006    218131   75.00    3.00    0.00    0.00   78.00    30      1.00      0.00  590316  583076   0.22      0.00 294912.00      0.00      22  perf_experiment

# Time        UID       PID    %usr %system  %guest   %wait    %CPU   CPU  minflt/s  majflt/s     VSZ     RSS   %MEM   kB_rd/s   kB_wr/s kB_ccwr/s iodelay  Command
11:42:06 PM  1006    218131   79.00    0.00    0.00    0.00   79.00    30      0.00      0.00  590316  583076   0.22      0.00 262144.00      0.00      20  perf_experiment

# Time        UID       PID    %usr %system  %guest   %wait    %CPU   CPU  minflt/s  majflt/s     VSZ     RSS   %MEM   kB_rd/s   kB_wr/s kB_ccwr/s iodelay  Command
11:42:07 PM  1006    218131   77.00    1.00    0.00    0.00   78.00    30      2.00      0.00  590316  583076   0.22      0.00 294912.00      0.00      22  perf_experiment

# Time        UID       PID    %usr %system  %guest   %wait    %CPU   CPU  minflt/s  majflt/s     VSZ     RSS   %MEM   kB_rd/s   kB_wr/s kB_ccwr/s iodelay  Command
11:42:08 PM  1006    218131   77.00    3.00    0.00    0.00   80.00    30      0.00      0.00  590316  583076   0.22      0.00 294912.00      0.00      19  perf_experiment

# Time        UID       PID    %usr %system  %guest   %wait    %CPU   CPU  minflt/s  majflt/s     VSZ     RSS   %MEM   kB_rd/s   kB_wr/s kB_ccwr/s iodelay  Command
11:42:09 PM  1006    218131   78.00    2.00    0.00    0.00   80.00    30      1.00      0.00  590316  583076   0.22      0.00 262144.00      0.00      21  perf_experiment

# Time        UID       PID    %usr %system  %guest   %wait    %CPU   CPU  minflt/s  majflt/s     VSZ     RSS   %MEM   kB_rd/s   kB_wr/s kB_ccwr/s iodelay  Command
11:42:10 PM  1006    218131   77.00    2.00    0.00    0.00   79.00    30      0.00      0.00  590316  583076   0.22      0.00 294912.00      0.00      21  perf_experiment

# Time        UID       PID    %usr %system  %guest   %wait    %CPU   CPU  minflt/s  majflt/s     VSZ     RSS   %MEM   kB_rd/s   kB_wr/s kB_ccwr/s iodelay  Command
11:42:11 PM  1006    218131   79.00    1.00    0.00    0.00   80.00    30      2.00      0.00  590316  583076   0.22      0.00 262144.00      0.00      20  perf_experiment

# Time        UID       PID    %usr %system  %guest   %wait    %CPU   CPU  minflt/s  majflt/s     VSZ     RSS   %MEM   kB_rd/s   kB_wr/s kB_ccwr/s iodelay  Command
11:42:12 PM  1006    218131   75.00    3.00    0.00    0.00   78.00    30      0.00      0.00  590316  583076   0.22      0.00 294912.00      0.00      22  perf_experiment

# Time        UID       PID    %usr %system  %guest   %wait    %CPU   CPU  minflt/s  majflt/s     VSZ     RSS   %MEM   kB_rd/s   kB_wr/s kB_ccwr/s iodelay  Command
11:42:13 PM  1006    218131   78.00    2.00    0.00    0.00   80.00    30      0.00      0.00  590316  583076   0.22      0.00 294912.00      0.00      20  perf_experiment

# Time        UID       PID    %usr %system  %guest   %wait    %CPU   CPU  minflt/s  majflt/s     VSZ     RSS   %MEM   kB_rd/s   kB_wr/s kB_ccwr/s iodelay  Command
11:42:14 PM  1006    218131   74.00    4.00    0.00    0.00   78.00    30      3.00      0.00  590316  583076   0.22      0.00 262144.00      0.00      22  perf_experiment

# Time        UID       PID    %usr %system  %guest   %wait    %CPU   CPU  minflt/s  majflt/s     VSZ     RSS   %MEM   kB_rd/s   kB_wr/s kB_ccwr/s iodelay  Command
11:42:15 PM  1006    218131   79.00    1.00    0.00    0.00   80.00    30      0.00      0.00  590316  583076   0.22      0.00 262144.00      0.00      20  perf_experiment

# Time        UID       PID    %usr %system  %guest   %wait    %CPU   CPU  minflt/s  majflt/s     VSZ     RSS   %MEM   kB_rd/s   kB_wr/s kB_ccwr/s iodelay  Command
11:42:16 PM  1006    218131   77.00    1.00    0.00    0.00   78.00    30      0.00      0.00  590316  583076   0.22      0.00 294912.00      0.00      23  perf_experiment

# Time        UID       PID    %usr %system  %guest   %wait    %CPU   CPU  minflt/s  majflt/s     VSZ     RSS   %MEM   kB_rd/s   kB_wr/s kB_ccwr/s iodelay  Command
11:42:17 PM  1006    218131   79.00    2.00    0.00    0.00   81.00    30      0.00      0.00  590316  583076   0.22      0.00 262144.00      0.00      19  perf_experiment

# Time        UID       PID    %usr %system  %guest   %wait    %CPU   CPU  minflt/s  majflt/s     VSZ     RSS   %MEM   kB_rd/s   kB_wr/s kB_ccwr/s iodelay  Command
11:42:18 PM  1006    218131   77.00    1.00    0.00    0.00   78.00    30      0.00      0.00  590316  583076   0.22      0.00 294912.00      0.00      22  perf_experiment

# Time        UID       PID    %usr %system  %guest   %wait    %CPU   CPU  minflt/s  majflt/s     VSZ     RSS   %MEM   kB_rd/s   kB_wr/s kB_ccwr/s iodelay  Command
11:42:19 PM  1006    218131   80.00    1.00    0.00    0.00   81.00    30      0.00      0.00  590316  583076   0.22      0.00 262144.00      0.00      19  perf_experiment

# Time        UID       PID    %usr %system  %guest   %wait    %CPU   CPU  minflt/s  majflt/s     VSZ     RSS   %MEM   kB_rd/s   kB_wr/s kB_ccwr/s iodelay  Command
11:42:20 PM  1006    218131   77.00    0.00    0.00    0.00   77.00    30      0.00      0.00  590316  583076   0.22      0.00 294912.00      0.00      22  perf_experiment

# Time        UID       PID    %usr %system  %guest   %wait    %CPU   CPU  minflt/s  majflt/s     VSZ     RSS   %MEM   kB_rd/s   kB_wr/s kB_ccwr/s iodelay  Command
11:42:21 PM  1006    218131   81.00    2.00    0.00    0.00   83.00    30      0.00      0.00  590316  583076   0.22      0.00 262144.00      0.00      18  perf_experiment

# Time        UID       PID    %usr %system  %guest   %wait    %CPU   CPU  minflt/s  majflt/s     VSZ     RSS   %MEM   kB_rd/s   kB_wr/s kB_ccwr/s iodelay  Command
11:42:22 PM  1006    218131   78.00    0.00    0.00    0.00   78.00    30      3.00      0.00  590316  583076   0.22      0.00 294912.00      0.00      21  perf_experiment

# Time        UID       PID    %usr %system  %guest   %wait    %CPU   CPU  minflt/s  majflt/s     VSZ     RSS   %MEM   kB_rd/s   kB_wr/s kB_ccwr/s iodelay  Command
11:42:23 PM  1006    218131   77.00    2.00    0.00    0.00   79.00    30      0.00      0.00  590316  583076   0.22      0.00 262144.00      0.00      21  perf_experiment

# Time        UID       PID    %usr %system  %guest   %wait    %CPU   CPU  minflt/s  majflt/s     VSZ     RSS   %MEM   kB_rd/s   kB_wr/s kB_ccwr/s iodelay  Command
11:42:24 PM  1006    218131   79.00    2.00    0.00    0.00   81.00    30      0.00      0.00  590316  583076   0.22      0.00 262144.00      0.00      19  perf_experiment

# Time        UID       PID    %usr %system  %guest   %wait    %CPU   CPU  minflt/s  majflt/s     VSZ     RSS   %MEM   kB_rd/s   kB_wr/s kB_ccwr/s iodelay  Command
11:42:25 PM  1006    218131   76.00    2.00    0.00    0.00   78.00    30      0.00      0.00  590316  583076   0.22      0.00 294912.00      0.00      23  perf_experiment

# Time        UID       PID    %usr %system  %guest   %wait    %CPU   CPU  minflt/s  majflt/s     VSZ     RSS   %MEM   kB_rd/s   kB_wr/s kB_ccwr/s iodelay  Command
11:42:26 PM  1006    218131   78.00    2.00    0.00    0.00   80.00    30      2.00      0.00  590316  583076   0.22      0.00 262144.00      0.00      19  perf_experiment

# Time        UID       PID    %usr %system  %guest   %wait    %CPU   CPU  minflt/s  majflt/s     VSZ     RSS   %MEM   kB_rd/s   kB_wr/s kB_ccwr/s iodelay  Command
11:42:27 PM  1006    218131   81.00    0.00    0.00    0.00   81.00    30      0.00      0.00  590316  583076   0.22      0.00 262144.00      0.00      19  perf_experiment

# Time        UID       PID    %usr %system  %guest   %wait    %CPU   CPU  minflt/s  majflt/s     VSZ     RSS   %MEM   kB_rd/s   kB_wr/s kB_ccwr/s iodelay  Command
11:42:28 PM  1006    218131   77.00    2.00    0.00    0.00   79.00    30      0.00      0.00  590316  583076   0.22      0.00 294912.00      0.00      20  perf_experiment

# Time        UID       PID    %usr %system  %guest   %wait    %CPU   CPU  minflt/s  majflt/s     VSZ     RSS   %MEM   kB_rd/s   kB_wr/s kB_ccwr/s iodelay  Command
11:42:29 PM  1006    218131   79.00    0.00    0.00    0.00   79.00    30      0.00      0.00  590316  583076   0.22      0.00 262144.00      0.00      22  perf_experiment

# Time        UID       PID    %usr %system  %guest   %wait    %CPU   CPU  minflt/s  majflt/s     VSZ     RSS   %MEM   kB_rd/s   kB_wr/s kB_ccwr/s iodelay  Command
11:42:30 PM  1006    218131   79.00    3.00    0.00    0.00   82.00    30      2.00      0.00  590316  583076   0.22      0.00 262144.00      0.00      18  perf_experiment

# Time        UID       PID    %usr %system  %guest   %wait    %CPU   CPU  minflt/s  majflt/s     VSZ     RSS   %MEM   kB_rd/s   kB_wr/s kB_ccwr/s iodelay  Command
11:42:31 PM  1006    218131   78.00    3.00    0.00    0.00   81.00    30      1.00      0.00  590316  583076   0.22      0.00 262144.00      0.00      19  perf_experiment

# Time        UID       PID    %usr %system  %guest   %wait    %CPU   CPU  minflt/s  majflt/s     VSZ     RSS   %MEM   kB_rd/s   kB_wr/s kB_ccwr/s iodelay  Command
11:42:32 PM  1006    218131   77.00    2.00    0.00    0.00   79.00    30      0.00      0.00  590316  583076   0.22      0.00 294912.00      0.00      22  perf_experiment

# Time        UID       PID    %usr %system  %guest   %wait    %CPU   CPU  minflt/s  majflt/s     VSZ     RSS   %MEM   kB_rd/s   kB_wr/s kB_ccwr/s iodelay  Command
11:42:33 PM  1006    218131   78.00    2.00    0.00    0.00   80.00    30      0.00      0.00  590316  583076   0.22      0.00 262144.00      0.00      19  perf_experiment

# Time        UID       PID    %usr %system  %guest   %wait    %CPU   CPU  minflt/s  majflt/s     VSZ     RSS   %MEM   kB_rd/s   kB_wr/s kB_ccwr/s iodelay  Command
11:42:34 PM  1006    218131   79.00    1.00    0.00    0.00   80.00    30      2.00      0.00  590316  583076   0.22      0.00 262144.00      0.00      20  perf_experiment

# Time        UID       PID    %usr %system  %guest   %wait    %CPU   CPU  minflt/s  majflt/s     VSZ     RSS   %MEM   kB_rd/s   kB_wr/s kB_ccwr/s iodelay  Command
11:42:35 PM  1006    218131   79.00    1.00    0.00    0.00   80.00    30      0.00      0.00  590316  583076   0.22      0.00 262144.00      0.00      19  perf_experiment

# Time        UID       PID    %usr %system  %guest   %wait    %CPU   CPU  minflt/s  majflt/s     VSZ     RSS   %MEM   kB_rd/s   kB_wr/s kB_ccwr/s iodelay  Command
11:42:36 PM  1006    218131   80.00    2.00    0.00    0.00   82.00    30      0.00      0.00  590316  583076   0.22      0.00 262144.00      0.00      20  perf_experiment

# Time        UID       PID    %usr %system  %guest   %wait    %CPU   CPU  minflt/s  majflt/s     VSZ     RSS   %MEM   kB_rd/s   kB_wr/s kB_ccwr/s iodelay  Command
11:42:37 PM  1006    218131   80.00    3.00    0.00    0.00   83.00    30     31.00      0.00  658052  583076   0.22   3654.00 229376.00      0.00      17  perf_experiment

# Time        UID       PID    %usr %system  %guest   %wait    %CPU   CPU  minflt/s  majflt/s     VSZ     RSS   %MEM   kB_rd/s   kB_wr/s kB_ccwr/s iodelay  Command
11:42:38 PM  1006    218131   97.00    3.00    0.00    0.00  100.00    30     21.00      0.00  658052  583308   0.22  19029.50      0.00      0.00       0  perf_experiment

# Time        UID       PID    %usr %system  %guest   %wait    %CPU   CPU  minflt/s  majflt/s     VSZ     RSS   %MEM   kB_rd/s   kB_wr/s kB_ccwr/s iodelay  Command
11:42:39 PM  1006    218131   98.00    1.00    0.00    0.00   99.00    30     37.00      0.00  658288  583488   0.22  18960.50      0.00      0.00       0  perf_experiment

# Time        UID       PID    %usr %system  %guest   %wait    %CPU   CPU  minflt/s  majflt/s     VSZ     RSS   %MEM   kB_rd/s   kB_wr/s kB_ccwr/s iodelay  Command
11:42:40 PM  1006    218131   97.00    4.00    0.00    0.00  101.00    30     50.00      0.00  658420  583488   0.22  18988.00      0.00      0.00       0  perf_experiment

# Time        UID       PID    %usr %system  %guest   %wait    %CPU   CPU  minflt/s  majflt/s     VSZ     RSS   %MEM   kB_rd/s   kB_wr/s kB_ccwr/s iodelay  Command
11:42:41 PM  1006    218131   97.00    3.00    0.00    0.00  100.00    30   5055.00      0.00  658680  583868   0.22  18902.00      0.00      0.00       0  perf_experiment

# Time        UID       PID    %usr %system  %guest   %wait    %CPU   CPU  minflt/s  majflt/s     VSZ     RSS   %MEM   kB_rd/s   kB_wr/s kB_ccwr/s iodelay  Command
11:42:42 PM  1006    218131   97.00    2.00    0.00    0.00   99.00    30   3767.00      0.00  658800  584024   0.22  18917.00      0.00      0.00       0  perf_experiment

# Time        UID       PID    %usr %system  %guest   %wait    %CPU   CPU  minflt/s  majflt/s     VSZ     RSS   %MEM   kB_rd/s   kB_wr/s kB_ccwr/s iodelay  Command
11:42:43 PM  1006    218131   97.00    4.00    0.00    0.00  101.00    30    711.00      0.00  658928  584204   0.22  19028.50      0.00      0.00       0  perf_experiment

# Time        UID       PID    %usr %system  %guest   %wait    %CPU   CPU  minflt/s  majflt/s     VSZ     RSS   %MEM   kB_rd/s   kB_wr/s kB_ccwr/s iodelay  Command
11:42:44 PM  1006    218131   98.00    2.00    0.00    0.00  100.00    30    260.00      0.00  659060  584312   0.22  19062.50      0.00      0.00       0  perf_experiment

# Time        UID       PID    %usr %system  %guest   %wait    %CPU   CPU  minflt/s  majflt/s     VSZ     RSS   %MEM   kB_rd/s   kB_wr/s kB_ccwr/s iodelay  Command
11:42:45 PM  1006    218131   98.00    2.00    0.00    0.00  100.00    30    219.00      0.00  659292  584524   0.22  19003.00      0.00      0.00       0  perf_experiment

# Time        UID       PID    %usr %system  %guest   %wait    %CPU   CPU  minflt/s  majflt/s     VSZ     RSS   %MEM   kB_rd/s   kB_wr/s kB_ccwr/s iodelay  Command
11:42:46 PM  1006    218131   97.00    2.00    0.00    0.00   99.00    30    188.00      0.00  659420  584676   0.22  19021.50      0.00      0.00       0  perf_experiment

# Time        UID       PID    %usr %system  %guest   %wait    %CPU   CPU  minflt/s  majflt/s     VSZ     RSS   %MEM   kB_rd/s   kB_wr/s kB_ccwr/s iodelay  Command
11:42:47 PM  1006    218131   98.00    3.00    0.00    0.00  101.00    30    143.00      0.00  659676  584888   0.22  19073.50      0.00      0.00       0  perf_experiment

# Time        UID       PID    %usr %system  %guest   %wait    %CPU   CPU  minflt/s  majflt/s     VSZ     RSS   %MEM   kB_rd/s   kB_wr/s kB_ccwr/s iodelay  Command
11:42:48 PM  1006    218131   96.00    3.00    0.00    0.00   99.00    30    146.00      0.00  659784  584996   0.22  19167.00      0.00      0.00       0  perf_experiment

# Time        UID       PID    %usr %system  %guest   %wait    %CPU   CPU  minflt/s  majflt/s     VSZ     RSS   %MEM   kB_rd/s   kB_wr/s kB_ccwr/s iodelay  Command
11:42:49 PM  1006    218131   99.00    2.00    0.00    0.00  101.00    30    134.00      0.00  660040  585188   0.22  19201.50      0.00      0.00       0  perf_experiment

# Time        UID       PID    %usr %system  %guest   %wait    %CPU   CPU  minflt/s  majflt/s     VSZ     RSS   %MEM   kB_rd/s   kB_wr/s kB_ccwr/s iodelay  Command
11:42:50 PM  1006    218131   97.00    3.00    0.00    0.00  100.00    30     90.00      0.00  660164  585368   0.22  19230.50      0.00      0.00       0  perf_experiment

# Time        UID       PID    %usr %system  %guest   %wait    %CPU   CPU  minflt/s  majflt/s     VSZ     RSS   %MEM   kB_rd/s   kB_wr/s kB_ccwr/s iodelay  Command
11:42:51 PM  1006    218131   96.00    4.00    0.00    0.00  100.00    30    115.00      0.00  660268  585488   0.22  19297.00      0.00      0.00       0  perf_experiment

# Time        UID       PID    %usr %system  %guest   %wait    %CPU   CPU  minflt/s  majflt/s     VSZ     RSS   %MEM   kB_rd/s   kB_wr/s kB_ccwr/s iodelay  Command
11:42:52 PM  1006    218131   97.00    3.00    0.00    0.00  100.00    30    122.00      0.00  660524  585672   0.22  19228.50      0.00      0.00       0  perf_experiment

# Time        UID       PID    %usr %system  %guest   %wait    %CPU   CPU  minflt/s  majflt/s     VSZ     RSS   %MEM   kB_rd/s   kB_wr/s kB_ccwr/s iodelay  Command
11:42:53 PM  1006    218131   97.00    3.00    0.00    0.00  100.00    30    149.00      0.00  660656  585892   0.22  19149.00      0.00      0.00       0  perf_experiment

# Time        UID       PID    %usr %system  %guest   %wait    %CPU   CPU  minflt/s  majflt/s     VSZ     RSS   %MEM   kB_rd/s   kB_wr/s kB_ccwr/s iodelay  Command
11:42:54 PM  1006    218131   96.00    4.00    0.00    0.00  100.00    30    201.00      0.00  660792  586032   0.22  19301.00      0.00      0.00       0  perf_experiment

# Time        UID       PID    %usr %system  %guest   %wait    %CPU   CPU  minflt/s  majflt/s     VSZ     RSS   %MEM   kB_rd/s   kB_wr/s kB_ccwr/s iodelay  Command
11:42:55 PM  1006    218131   98.00    2.00    0.00    0.00  100.00    30    208.00      0.00  661064  586276   0.22  19277.50      0.00      0.00       0  perf_experiment

# Time        UID       PID    %usr %system  %guest   %wait    %CPU   CPU  minflt/s  majflt/s     VSZ     RSS   %MEM   kB_rd/s   kB_wr/s kB_ccwr/s iodelay  Command
11:42:56 PM  1006    218131   98.00    2.00    0.00    0.00  100.00    30    190.00      0.00  661200  586380   0.22  19326.50      0.00      0.00       0  perf_experiment

# Time        UID       PID    %usr %system  %guest   %wait    %CPU   CPU  minflt/s  majflt/s     VSZ     RSS   %MEM   kB_rd/s   kB_wr/s kB_ccwr/s iodelay  Command
11:42:57 PM  1006    218131   97.00    3.00    0.00    0.00  100.00    30    198.00      0.00  661336  586592   0.22  19215.00      0.00      0.00       0  perf_experiment

# Time        UID       PID    %usr %system  %guest   %wait    %CPU   CPU  minflt/s  majflt/s     VSZ     RSS   %MEM   kB_rd/s   kB_wr/s kB_ccwr/s iodelay  Command
11:42:58 PM  1006    218131   98.00    2.00    0.00    0.00  100.00    30    190.00      0.00  661564  586792   0.22  19179.50      0.00      0.00       0  perf_experiment

# Time        UID       PID    %usr %system  %guest   %wait    %CPU   CPU  minflt/s  majflt/s     VSZ     RSS   %MEM   kB_rd/s   kB_wr/s kB_ccwr/s iodelay  Command
11:42:59 PM  1006    218131   98.00    2.00    0.00    0.00  100.00    30    218.00      0.00  661688  586916   0.22  19194.50      0.00      0.00       0  perf_experiment

# Time        UID       PID    %usr %system  %guest   %wait    %CPU   CPU  minflt/s  majflt/s     VSZ     RSS   %MEM   kB_rd/s   kB_wr/s kB_ccwr/s iodelay  Command
11:43:00 PM  1006    218131   98.00    2.00    0.00    0.00  100.00    30    200.00      0.00  661924  587164   0.22  19220.50      0.00      0.00       0  perf_experiment

# Time        UID       PID    %usr %system  %guest   %wait    %CPU   CPU  minflt/s  majflt/s     VSZ     RSS   %MEM   kB_rd/s   kB_wr/s kB_ccwr/s iodelay  Command
11:43:01 PM  1006    218131   98.00    2.00    0.00    0.00  100.00    30    180.00      0.00  662032  587300   0.22  19169.50      0.00      0.00       0  perf_experiment

# Time        UID       PID    %usr %system  %guest   %wait    %CPU   CPU  minflt/s  majflt/s     VSZ     RSS   %MEM   kB_rd/s   kB_wr/s kB_ccwr/s iodelay  Command
11:43:02 PM  1006    218131   97.00    3.00    0.00    0.00  100.00    30    204.00      0.00  662152  587436   0.22  19222.00      0.00      0.00       0  perf_experiment

# Time        UID       PID    %usr %system  %guest   %wait    %CPU   CPU  minflt/s  majflt/s     VSZ     RSS   %MEM   kB_rd/s   kB_wr/s kB_ccwr/s iodelay  Command
11:43:03 PM  1006    218131   98.00    2.00    0.00    0.00  100.00    30    190.00      0.00  662420  587616   0.22  19221.00      0.00      0.00       0  perf_experiment

# Time        UID       PID    %usr %system  %guest   %wait    %CPU   CPU  minflt/s  majflt/s     VSZ     RSS   %MEM   kB_rd/s   kB_wr/s kB_ccwr/s iodelay  Command
11:43:04 PM  1006    218131   97.00    3.00    0.00    0.00  100.00    30    203.00      0.00  662668  587864   0.22  19225.50      0.00      0.00       0  perf_experiment

# Time        UID       PID    %usr %system  %guest   %wait    %CPU   CPU  minflt/s  majflt/s     VSZ     RSS   %MEM   kB_rd/s   kB_wr/s kB_ccwr/s iodelay  Command
11:43:05 PM  1006    218131   96.00    4.00    0.00    0.00  100.00    30    237.00      0.00  662800  587980   0.22  19201.50      0.00      0.00       0  perf_experiment

# Time        UID       PID    %usr %system  %guest   %wait    %CPU   CPU  minflt/s  majflt/s     VSZ     RSS   %MEM   kB_rd/s   kB_wr/s kB_ccwr/s iodelay  Command
11:43:06 PM  1006    218131   98.00    2.00    0.00    0.00  100.00    30    199.00      0.00  662928  588188   0.22  19197.50      0.00      0.00       0  perf_experiment

# Time        UID       PID    %usr %system  %guest   %wait    %CPU   CPU  minflt/s  majflt/s     VSZ     RSS   %MEM   kB_rd/s   kB_wr/s kB_ccwr/s iodelay  Command
11:43:07 PM  1006    218131   98.00    2.00    0.00    0.00  100.00    30    190.00      0.00  663048  588324   0.22  19248.00      0.00      0.00       0  perf_experiment

# Time        UID       PID    %usr %system  %guest   %wait    %CPU   CPU  minflt/s  majflt/s     VSZ     RSS   %MEM   kB_rd/s   kB_wr/s kB_ccwr/s iodelay  Command
11:43:08 PM  1006    218131   99.00    1.00    0.00    0.00  100.00    30    202.00      0.00  663300  588504   0.22  19226.50      0.00      0.00       0  perf_experiment

# Time        UID       PID    %usr %system  %guest   %wait    %CPU   CPU  minflt/s  majflt/s     VSZ     RSS   %MEM   kB_rd/s   kB_wr/s kB_ccwr/s iodelay  Command
11:43:09 PM  1006    218131   99.00    1.00    0.00    0.00  100.00    30    164.00      0.00  663428  588632   0.22  19226.50      0.00      0.00       0  perf_experiment

# Time        UID       PID    %usr %system  %guest   %wait    %CPU   CPU  minflt/s  majflt/s     VSZ     RSS   %MEM   kB_rd/s   kB_wr/s kB_ccwr/s iodelay  Command
11:43:10 PM  1006    218131   97.00    3.00    0.00    0.00  100.00    30    167.00      0.00  663552  588852   0.22  19186.00      0.00      0.00       0  perf_experiment

# Time        UID       PID    %usr %system  %guest   %wait    %CPU   CPU  minflt/s  majflt/s     VSZ     RSS   %MEM   kB_rd/s   kB_wr/s kB_ccwr/s iodelay  Command
11:43:11 PM  1006    218131   96.00    4.00    0.00    0.00  100.00    30    204.00      0.00  663824  588996   0.22  19257.00      0.00      0.00       0  perf_experiment

# Time        UID       PID    %usr %system  %guest   %wait    %CPU   CPU  minflt/s  majflt/s     VSZ     RSS   %MEM   kB_rd/s   kB_wr/s kB_ccwr/s iodelay  Command
11:43:12 PM  1006    218131   99.00    1.00    0.00    0.00  100.00    30    206.00      0.00  663944  589196   0.22  19218.00      0.00      0.00       0  perf_experiment

# Time        UID       PID    %usr %system  %guest   %wait    %CPU   CPU  minflt/s  majflt/s     VSZ     RSS   %MEM   kB_rd/s   kB_wr/s kB_ccwr/s iodelay  Command
11:43:13 PM  1006    218131   96.00    4.00    0.00    0.00  100.00    30    188.00      0.00  664176  589388   0.22  19255.50      0.00      0.00       0  perf_experiment

# Time        UID       PID    %usr %system  %guest   %wait    %CPU   CPU  minflt/s  majflt/s     VSZ     RSS   %MEM   kB_rd/s   kB_wr/s kB_ccwr/s iodelay  Command
11:43:14 PM  1006    218131   97.00    3.00    0.00    0.00  100.00    30    206.00      0.00  664304  589552   0.22  19297.50      0.00      0.00       0  perf_experiment

# Time        UID       PID    %usr %system  %guest   %wait    %CPU   CPU  minflt/s  majflt/s     VSZ     RSS   %MEM   kB_rd/s   kB_wr/s kB_ccwr/s iodelay  Command
11:43:15 PM  1006    218131   95.00    5.00    0.00    0.00  100.00    30    194.00      0.00  664432  589668   0.22  19242.00      0.00      0.00       0  perf_experiment

# Time        UID       PID    %usr %system  %guest   %wait    %CPU   CPU  minflt/s  majflt/s     VSZ     RSS   %MEM   kB_rd/s   kB_wr/s kB_ccwr/s iodelay  Command
11:43:16 PM  1006    218131   98.00    2.00    0.00    0.00  100.00    30    207.00      0.00  664688  589900   0.22  19177.50      0.00      0.00       0  perf_experiment

# Time        UID       PID    %usr %system  %guest   %wait    %CPU   CPU  minflt/s  majflt/s     VSZ     RSS   %MEM   kB_rd/s   kB_wr/s kB_ccwr/s iodelay  Command
11:43:17 PM  1006    218131   98.00    2.00    0.00    0.00  100.00    30    189.00      0.00  664796  590088   0.22  19239.00      0.00      0.00       0  perf_experiment

# Time        UID       PID    %usr %system  %guest   %wait    %CPU   CPU  minflt/s  majflt/s     VSZ     RSS   %MEM   kB_rd/s   kB_wr/s kB_ccwr/s iodelay  Command
11:43:18 PM  1006    218131   98.00    2.00    0.00    0.00  100.00    30    174.00      0.00  665064  590212   0.22  19179.50      0.00      0.00       0  perf_experiment

# Time        UID       PID    %usr %system  %guest   %wait    %CPU   CPU  minflt/s  majflt/s     VSZ     RSS   %MEM   kB_rd/s   kB_wr/s kB_ccwr/s iodelay  Command