5,Faster,1,5000000,2500000,32,128,62014,5000000


resource usage stats

Linux 5.4.0-42-generic (arcon1) 	10/25/2020 	_x86_64_	(64 CPU)

# Time        UID       PID    %usr %system  %guest   %wait    %CPU   CPU  minflt/s  majflt/s     VSZ     RSS   %MEM   kB_rd/s   kB_wr/s kB_ccwr/s iodelay  Command
11:07:22 AM  1006    221218   59.00   40.00    0.00    0.00   99.00    53 146320.00      0.00  665304  590536   0.22      0.00      4.00      0.00       0  perf_experiment

# Time        UID       PID    %usr %system  %guest   %wait    %CPU   CPU  minflt/s  majflt/s     VSZ     RSS   %MEM   kB_rd/s   kB_wr/s kB_ccwr/s iodelay  Command
11:07:23 AM  1006    221218   74.00   26.00    0.00    0.00  100.00    53   8261.00      0.00  675732  600972   0.23      0.00      0.00      0.00       0  perf_experiment

# Time        UID       PID    %usr %system  %guest   %wait    %CPU   CPU  minflt/s  majflt/s     VSZ     RSS   %MEM   kB_rd/s   kB_wr/s kB_ccwr/s iodelay  Command
11:07:24 AM  1006    221218   70.00   29.00    0.00    0.00   99.00    53  18400.00      0.00  685896  611188   0.23      0.00      0.00      0.00       0  perf_experiment

# Time        UID       PID    %usr %system  %guest   %wait    %CPU   CPU  minflt/s  majflt/s     VSZ     RSS   %MEM   kB_rd/s   kB_wr/s kB_ccwr/s iodelay  Command
11:07:25 AM  1006    221218   76.00   25.00    0.00    0.00  101.00    53  18802.00      0.00  696060  621348   0.24      0.00      0.00      0.00       0  perf_experiment

# Time        UID       PID    %usr %system  %guest   %wait    %CPU   CPU  minflt/s  majflt/s     VSZ     RSS   %MEM   kB_rd/s   kB_wr/s kB_ccwr/s iodelay  Command
11:07:26 AM  1006    221218   72.00   27.00    0.00    0.00   99.00    53  16866.00      0.00  706092  631404   0.24      0.00      0.00      0.00       0  perf_experiment

# Time        UID       PID    %usr %system  %guest   %wait    %CPU   CPU  minflt/s  majflt/s     VSZ     RSS   %MEM   kB_rd/s   kB_wr/s kB_ccwr/s iodelay  Command
11:07:27 AM  1006    221218   67.00   34.00    0.00    0.00  101.00    53  19418.00      0.00  716124  641428   0.24      0.00      0.00      0.00       0  perf_experiment

# Time        UID       PID    %usr %system  %guest   %wait    %CPU   CPU  minflt/s  majflt/s     VSZ     RSS   %MEM   kB_rd/s   kB_wr/s kB_ccwr/s iodelay  Command
11:07:28 AM  1006    221218   75.00   21.00    0.00    0.00   96.00    53  29085.00      0.00  725232  650444   0.25      0.00  65536.00      0.00       4  perf_experiment

# Time        UID       PID    %usr %system  %guest   %wait    %CPU   CPU  minflt/s  majflt/s     VSZ     RSS   %MEM   kB_rd/s   kB_wr/s kB_ccwr/s iodelay  Command
11:07:29 AM  1006    221218   80.00   18.00    0.00    0.00   98.00    53  19603.00      0.00  734736  660040   0.25      0.00  32768.00      0.00       2  perf_experiment

# Time        UID       PID    %usr %system  %guest   %wait    %CPU   CPU  minflt/s  majflt/s     VSZ     RSS   %MEM   kB_rd/s   kB_wr/s kB_ccwr/s iodelay  Command
11:07:30 AM  1006    221218   69.00   26.00    0.00    0.00   95.00    53  21056.00      0.00  743844  669128   0.25      0.00  65536.00      0.00       4  perf_experiment

# Time        UID       PID    %usr %system  %guest   %wait    %CPU   CPU  minflt/s  majflt/s     VSZ     RSS   %MEM   kB_rd/s   kB_wr/s kB_ccwr/s iodelay  Command
11:07:31 AM  1006    221218   73.00   25.00    0.00    0.00   98.00    53  23758.00      0.00  753084  678428   0.26      0.00  32768.00      0.00       3  perf_experiment

# Time        UID       PID    %usr %system  %guest   %wait    %CPU   CPU  minflt/s  majflt/s     VSZ     RSS   %MEM   kB_rd/s   kB_wr/s kB_ccwr/s iodelay  Command
11:07:32 AM  1006    221218   74.00   21.00    0.00    0.00   95.00    53  19070.00      0.00  762060  687236   0.26      0.00  65536.00      0.00       4  perf_experiment

# Time        UID       PID    %usr %system  %guest   %wait    %CPU   CPU  minflt/s  majflt/s     VSZ     RSS   %MEM   kB_rd/s   kB_wr/s kB_ccwr/s iodelay  Command
11:07:33 AM  1006    221218   75.00   21.00    0.00    0.00   96.00    53  24344.00      0.00  771036  696344   0.26      0.00  65536.00      0.00       2  perf_experiment

# Time        UID       PID    %usr %system  %guest   %wait    %CPU   CPU  minflt/s  majflt/s     VSZ     RSS   %MEM   kB_rd/s   kB_wr/s kB_ccwr/s iodelay  Command
11:07:34 AM  1006    221218   57.00   44.00    0.00    0.00  101.00    53   1538.00      0.00  775264  700628   0.27   4613.00      0.00      0.00       2  perf_experiment

# Time        UID       PID    %usr %system  %guest   %wait    %CPU   CPU  minflt/s  majflt/s     VSZ     RSS   %MEM   kB_rd/s   kB_wr/s kB_ccwr/s iodelay  Command
11:07:35 AM  1006    221218   33.00   66.00    0.00    0.00   99.00    53    656.00      0.00  775644  701060   0.27   8428.00      0.00      0.00       0  perf_experiment

# Time        UID       PID    %usr %system  %guest   %wait    %CPU   CPU  minflt/s  majflt/s     VSZ     RSS   %MEM   kB_rd/s   kB_wr/s kB_ccwr/s iodelay  Command
11:07:36 AM  1006    221218   37.00   64.00    0.00    0.00  101.00    53    579.00      0.00  776016  701432   0.27   7714.50      0.00      0.00       0  perf_experiment

# Time        UID       PID    %usr %system  %guest   %wait    %CPU   CPU  minflt/s  majflt/s     VSZ     RSS   %MEM   kB_rd/s   kB_wr/s kB_ccwr/s iodelay  Command
11:07:37 AM  1006    221218   29.00   71.00    0.00    0.00  100.00    53   1143.00      0.00  776392  701812   0.27   8021.50      0.00      0.00       0  perf_experiment

# Time        UID       PID    %usr %system  %guest   %wait    %CPU   CPU  minflt/s  majflt/s     VSZ     RSS   %MEM   kB_rd/s   kB_wr/s kB_ccwr/s iodelay  Command
11:07:38 AM  1006    221218   37.00   62.00    0.00    0.00   99.00    53    614.00      0.00  776884  702236   0.27   8170.00      0.00      0.00       0  perf_experiment

# Time        UID       PID    %usr %system  %guest   %wait    %CPU   CPU  minflt/s  majflt/s     VSZ     RSS   %MEM   kB_rd/s   kB_wr/s kB_ccwr/s iodelay  Command
11:07:39 AM  1006    221218   33.00   66.00    0.00    0.00   99.00    53   8791.00      0.00  777276  702608   0.27   7847.50  32768.00      0.00       2  perf_experiment

# Time        UID       PID    %usr %system  %guest   %wait    %CPU   CPU  minflt/s  majflt/s     VSZ     RSS   %MEM   kB_rd/s   kB_wr/s kB_ccwr/s iodelay  Command
11:07:40 AM  1006    221218   36.00   64.00    0.00    0.00  100.00    53    597.00      0.00  777648  702992   0.27   7641.50      0.00      0.00       0  perf_experiment

# Time        UID       PID    %usr %system  %guest   %wait    %CPU   CPU  minflt/s  majflt/s     VSZ     RSS   %MEM   kB_rd/s   kB_wr/s kB_ccwr/s iodelay  Command
11:07:41 AM  1006    221218   40.00   60.00    0.00    0.00  100.00    53    618.00      0.00  778012  703420   0.27   8127.00      0.00      0.00       0  perf_experiment

# Time        UID       PID    %usr %system  %guest   %wait    %CPU   CPU  minflt/s  majflt/s     VSZ     RSS   %MEM   kB_rd/s   kB_wr/s kB_ccwr/s iodelay  Command
11:07:42 AM  1006    221218   32.00   67.00    0.00    0.00   99.00    53   1166.00      0.00  778384  703804   0.27   8451.00      0.00      0.00       0  perf_experiment

# Time        UID       PID    %usr %system  %guest   %wait    %CPU   CPU  minflt/s  majflt/s     VSZ     RSS   %MEM   kB_rd/s   kB_wr/s kB_ccwr/s iodelay  Command
11:07:43 AM  1006    221218   35.00   65.00    0.00    0.00  100.00    53    586.00      0.00  778756  704172   0.27   7765.00      0.00      0.00       0  perf_experiment

# Time        UID       PID    %usr %system  %guest   %wait    %CPU   CPU  minflt/s  majflt/s     VSZ     RSS   %MEM   kB_rd/s   kB_wr/s kB_ccwr/s iodelay  Command
11:07:44 AM  1006    221218   31.00   69.00    0.00    0.00  100.00    53    603.00      0.00  779124  704536   0.27   8030.00      0.00      0.00       0  perf_experiment

# Time        UID       PID    %usr %system  %guest   %wait    %CPU   CPU  minflt/s  majflt/s     VSZ     RSS   %MEM   kB_rd/s   kB_wr/s kB_ccwr/s iodelay  Command
11:07:45 AM  1006    221218   35.00   66.00    0.00    0.00  101.00    53    626.00      0.00  779632  704980   0.27   8302.50      0.00      0.00       0  perf_experiment

# Time        UID       PID    %usr %system  %guest   %wait    %CPU   CPU  minflt/s  majflt/s     VSZ     RSS   %MEM   kB_rd/s   kB_wr/s kB_ccwr/s iodelay  Command
11:07:46 AM  1006    221218   32.00   67.00    0.00    0.00   99.00    53    588.00      0.00  779980  705388   0.27   7753.00      0.00      0.00       0  perf_experiment

# Time        UID       PID    %usr %system  %guest   %wait    %CPU   CPU  minflt/s  majflt/s     VSZ     RSS   %MEM   kB_rd/s   kB_wr/s kB_ccwr/s iodelay  Command
11:07:47 AM  1006    221218   36.00   65.00    0.00    0.00  101.00    53    635.00      0.00  780352  705748   0.27   8086.00      0.00      0.00       0  perf_experiment

# Time        UID       PID    %usr %system  %guest   %wait    %CPU   CPU  minflt/s  majflt/s     VSZ     RSS   %MEM   kB_rd/s   kB_wr/s kB_ccwr/s iodelay  Command
11:07:48 AM  1006    221218   39.00   61.00    0.00    0.00  100.00    53    617.00      0.00  780732  706140   0.27   8284.50      0.00      0.00       0  perf_experiment

# Time        UID       PID    %usr %system  %guest   %wait    %CPU   CPU  minflt/s  majflt/s     VSZ     RSS   %MEM   kB_rd/s   kB_wr/s kB_ccwr/s iodelay  Command
11:07:49 AM  1006    221218   40.00   60.00    0.00    0.00  100.00    53   1143.00      0.00  781124  706532   0.27   7976.00      0.00      0.00       0  perf_experiment

# Time        UID       PID    %usr %system  %guest   %wait    %CPU   CPU  minflt/s  majflt/s     VSZ     RSS   %MEM   kB_rd/s   kB_wr/s kB_ccwr/s iodelay  Command
11:07:50 AM  1006    221218   39.00   61.00    0.00    0.00  100.00    53    600.00      0.00  781504  706916   0.27   7945.50      0.00      0.00       0  perf_experiment

# Time        UID       PID    %usr %system  %guest   %wait    %CPU   CPU  minflt/s  majflt/s     VSZ     RSS   %MEM   kB_rd/s   kB_wr/s kB_ccwr/s iodelay  Command
11:07:51 AM  1006    221218   34.00   65.00    0.00    0.00   99.00    53    626.00      0.00  782000  707336   0.27   8180.00      0.00      0.00       0  perf_experiment

# Time        UID       PID    %usr %system  %guest   %wait    %CPU   CPU  minflt/s  majflt/s     VSZ     RSS   %MEM   kB_rd/s   kB_wr/s kB_ccwr/s iodelay  Command
11:07:52 AM  1006    221218   38.00   62.00    0.00    0.00  100.00    53    619.00      0.00  782368  707720   0.27   8104.00      0.00      0.00       0  perf_experiment

# Time        UID       PID    %usr %system  %guest   %wait    %CPU   CPU  minflt/s  majflt/s     VSZ     RSS   %MEM   kB_rd/s   kB_wr/s kB_ccwr/s iodelay  Command
11:07:53 AM  1006    221218   43.00   57.00    0.00    0.00  100.00    53    621.00      0.00  782740  708140   0.27   8246.50      0.00      0.00       0  perf_experiment

# Time        UID       PID    %usr %system  %guest   %wait    %CPU   CPU  minflt/s  majflt/s     VSZ     RSS   %MEM   kB_rd/s   kB_wr/s kB_ccwr/s iodelay  Command
11:07:54 AM  1006    221218   40.00   60.00    0.00    0.00  100.00    53    598.00      0.00  783120  708532   0.27   7981.50      0.00      0.00       0  perf_experiment

# Time        UID       PID    %usr %system  %guest   %wait    %CPU   CPU  minflt/s  majflt/s     VSZ     RSS   %MEM   kB_rd/s   kB_wr/s kB_ccwr/s iodelay  Command
11:07:55 AM  1006    221218   42.00   55.00    0.00    0.00   97.00    53   8814.00      0.00  783504  708912   0.27   7891.00  32768.00      0.00       3  perf_experiment

# Time        UID       PID    %usr %system  %guest   %wait    %CPU   CPU  minflt/s  majflt/s     VSZ     RSS   %MEM   kB_rd/s   kB_wr/s kB_ccwr/s iodelay  Command
11:07:56 AM  1006    221218   37.00   64.00    0.00    0.00  101.00    53    665.00      0.00  783876  709296   0.27   8141.00      0.00      0.00       0  perf_experiment

# Time        UID       PID    %usr %system  %guest   %wait    %CPU   CPU  minflt/s  majflt/s     VSZ     RSS   %MEM   kB_rd/s   kB_wr/s kB_ccwr/s iodelay  Command
11:07:57 AM  1006    221218   34.00   66.00    0.00    0.00  100.00    53    626.00      0.00  784264  709692   0.27   7699.00      0.00      0.00       0  perf_experiment

# Time        UID       PID    %usr %system  %guest   %wait    %CPU   CPU  minflt/s  majflt/s     VSZ     RSS   %MEM   kB_rd/s   kB_wr/s kB_ccwr/s iodelay  Command
11:07:58 AM  1006    221218   39.00   61.00    0.00    0.00  100.00    53   1173.00      0.00  784648  710096   0.27   8211.50      0.00      0.00       0  perf_experiment

# Time        UID       PID    %usr %system  %guest   %wait    %CPU   CPU  minflt/s  majflt/s     VSZ     RSS   %MEM   kB_rd/s   kB_wr/s kB_ccwr/s iodelay  Command
11:07:59 AM  1006    221218   33.00   67.00    0.00    0.00  100.00    53    765.00      0.00  785152  710488   0.27   8180.50      0.00      0.00       0  perf_experiment

# Time        UID       PID    %usr %system  %guest   %wait    %CPU   CPU  minflt/s  majflt/s     VSZ     RSS   %MEM   kB_rd/s   kB_wr/s kB_ccwr/s iodelay  Command
11:08:00 AM  1006    221218   30.00   70.00    0.00    0.00  100.00    53    652.00      0.00  785528  710872   0.27   7865.00      0.00      0.00       0  perf_experiment

# Time        UID       PID    %usr %system  %guest   %wait    %CPU   CPU  minflt/s  majflt/s     VSZ     RSS   %MEM   kB_rd/s   kB_wr/s kB_ccwr/s iodelay  Command
11:08:01 AM  1006    221218   37.00   62.00    0.00    0.00   99.00    53    662.00      0.00  785928  711284   0.27   8369.00      0.00      0.00       0  perf_experiment

# Time        UID       PID    %usr %system  %guest   %wait    %CPU   CPU  minflt/s  majflt/s     VSZ     RSS   %MEM   kB_rd/s   kB_wr/s kB_ccwr/s iodelay  Command
11:08:02 AM  1006    221218   39.00   62.00    0.00    0.00  101.00    53    614.00      0.00  786296  711692   0.27   8146.50      0.00      0.00       0  perf_experiment

# Time        UID       PID    %usr %system  %guest   %wait    %CPU   CPU  minflt/s  majflt/s     VSZ     RSS   %MEM   kB_rd/s   kB_wr/s kB_ccwr/s iodelay  Command
11:08:03 AM  1006    221218   39.00   60.00    0.00    0.00   99.00    53    601.00      0.00  786676  712068   0.27   7600.00      0.00      0.00       0  perf_experiment

# Time        UID       PID    %usr %system  %guest   %wait    %CPU   CPU  minflt/s  majflt/s     VSZ     RSS   %MEM   kB_rd/s   kB_wr/s kB_ccwr/s iodelay  Command
11:08:04 AM  1006    221218   34.00   66.00    0.00    0.00  100.00    53    611.00      0.00  787044  712452   0.27   7994.50      0.00      0.00       0  perf_experiment

# Time        UID       PID    %usr %system  %guest   %wait    %CPU   CPU  minflt/s  majflt/s     VSZ     RSS   %MEM   kB_rd/s   kB_wr/s kB_ccwr/s iodelay  Command
11:08:05 AM  1006    221218   36.00   65.00    0.00    0.00  101.00    53    624.00      0.00  787520  712856   0.27   8244.00      0.00      0.00       0  perf_experiment

# Time        UID       PID    %usr %system  %guest   %wait    %CPU   CPU  minflt/s  majflt/s     VSZ     RSS   %MEM   kB_rd/s   kB_wr/s kB_ccwr/s iodelay  Command
11:08:06 AM  1006    221218   38.00   62.00    0.00    0.00  100.00    53    693.00      0.00  787892  713236   0.27   8241.00      0.00      0.00       0  perf_experiment

# Time        UID       PID    %usr %system  %guest   %wait    %CPU   CPU  minflt/s  majflt/s     VSZ     RSS   %MEM   kB_rd/s   kB_wr/s kB_ccwr/s iodelay  Command
11:08:07 AM  1006    221218   41.00   59.00    0.00    0.00  100.00    53    607.00      0.00  788272  713680   0.27   8047.00      0.00      0.00       0  perf_experiment

# Time        UID       PID    %usr %system  %guest   %wait    %CPU   CPU  minflt/s  majflt/s     VSZ     RSS   %MEM   kB_rd/s   kB_wr/s kB_ccwr/s iodelay  Command
11:08:08 AM  1006    221218   36.00   64.00    0.00    0.00  100.00    53    602.00      0.00  788636  714080   0.27   7960.00      0.00      0.00       0  perf_experiment

# Time        UID       PID    %usr %system  %guest   %wait    %CPU   CPU  minflt/s  majflt/s     VSZ     RSS   %MEM   kB_rd/s   kB_wr/s kB_ccwr/s iodelay  Command
11:08:09 AM  1006    221218   39.00   61.00    0.00    0.00  100.00    53    644.00      0.00  788996  714444   0.27   8223.00      0.00      0.00       0  perf_experiment

# Time        UID       PID    %usr %system  %guest   %wait    %CPU   CPU  minflt/s  majflt/s     VSZ     RSS   %MEM   kB_rd/s   kB_wr/s kB_ccwr/s iodelay  Command
11:08:10 AM  1006    221218   34.00   66.00    0.00    0.00  100.00    53    683.00      0.00  789512  714852   0.27   8099.50      0.00      0.00       0  perf_experiment

# Time        UID       PID    %usr %system  %guest   %wait    %CPU   CPU  minflt/s  majflt/s     VSZ     RSS   %MEM   kB_rd/s   kB_wr/s kB_ccwr/s iodelay  Command
11:08:11 AM  1006    221218   41.00   59.00    0.00    0.00  100.00    53    701.00      0.00  789772  715200   0.27   7868.50      0.00      0.00       0  perf_experiment

# Time        UID       PID    %usr %system  %guest   %wait    %CPU   CPU  minflt/s  majflt/s     VSZ     RSS   %MEM   kB_rd/s   kB_wr/s kB_ccwr/s iodelay  Command
11:08:12 AM  1006    221218   36.00   62.00    0.00    0.00   98.00    53   8904.00      0.00  790268  715608   0.27   7881.50  32768.00      0.00       2  perf_experiment

# Time        UID       PID    %usr %system  %guest   %wait    %CPU   CPU  minflt/s  majflt/s     VSZ     RSS   %MEM   kB_rd/s   kB_wr/s kB_ccwr/s iodelay  Command
11:08:13 AM  1006    221218   39.00   61.00    0.00    0.00  100.00    53    704.00      0.00  790644  715988   0.27   8215.00      0.00      0.00       0  perf_experiment

# Time        UID       PID    %usr %system  %guest   %wait    %CPU   CPU  minflt/s  majflt/s     VSZ     RSS   %MEM   kB_rd/s   kB_wr/s kB_ccwr/s iodelay  Command
11:08:14 AM  1006    221218   36.00   64.00    0.00    0.00  100.00    53    607.00      0.00  791012  716428   0.27   7886.00      0.00      0.00       0  perf_experiment

# Time        UID       PID    %usr %system  %guest   %wait    %CPU   CPU  minflt/s  majflt/s     VSZ     RSS   %MEM   kB_rd/s   kB_wr/s kB_ccwr/s iodelay  Command
11:08:15 AM  1006    221218   41.00   59.00    0.00    0.00  100.00    53   1124.00      0.00  791384  716792   0.27   8065.00      0.00      0.00       0  perf_experiment

# Time        UID       PID    %usr %system  %guest   %wait    %CPU   CPU  minflt/s  majflt/s     VSZ     RSS   %MEM   kB_rd/s   kB_wr/s kB_ccwr/s iodelay  Command
11:08:16 AM  1006    221218   35.00   65.00    0.00    0.00  100.00    53    704.00      0.00  791752  717208   0.27   8121.50      0.00      0.00       0  perf_experiment

# Time        UID       PID    %usr %system  %guest   %wait    %CPU   CPU  minflt/s  majflt/s     VSZ     RSS   %MEM   kB_rd/s   kB_wr/s kB_ccwr/s iodelay  Command
11:08:17 AM  1006    221218   38.00   62.00    0.00    0.00  100.00    53    661.00      0.00  792264  717592   0.27   7993.00      0.00      0.00       0  perf_experiment

# Time        UID       PID    %usr %system  %guest   %wait    %CPU   CPU  minflt/s  majflt/s     VSZ     RSS   %MEM   kB_rd/s   kB_wr/s kB_ccwr/s iodelay  Command
11:08:18 AM  1006    221218   39.00   61.00    0.00    0.00  100.00    53    635.00      0.00  792640  717976   0.27   7878.50      0.00      0.00       0  perf_experiment

# Time        UID       PID    %usr %system  %guest   %wait    %CPU   CPU  minflt/s  majflt/s     VSZ     RSS   %MEM   kB_rd/s   kB_wr/s kB_ccwr/s iodelay  Command
11:08:19 AM  1006    221218   34.00   66.00    0.00    0.00  100.00    53    609.00      0.00  793012  718360   0.27   8019.50      0.00      0.00       0  perf_experiment

# Time        UID       PID    %usr %system  %guest   %wait    %CPU   CPU  minflt/s  majflt/s     VSZ     RSS   %MEM   kB_rd/s   kB_wr/s kB_ccwr/s iodelay  Command
11:08:20 AM  1006    221218   35.00   64.00    0.00    0.00   99.00    53    682.00      0.00  793392  718768   0.27   8322.50      0.00      0.00       0  perf_experiment

# Time        UID       PID    %usr %system  %guest   %wait    %CPU   CPU  minflt/s  majflt/s     VSZ     RSS   %MEM   kB_rd/s   kB_wr/s kB_ccwr/s iodelay  Command
11:08:21 AM  1006    221218   37.00   64.00    0.00    0.00  101.00    53    613.00      0.00  793768  719176   0.27   7876.00      0.00      0.00       0  perf_experiment

# Time        UID       PID    %usr %system  %guest   %wait    %CPU   CPU  minflt/s  majflt/s     VSZ     RSS   %MEM   kB_rd/s   kB_wr/s kB_ccwr/s iodelay  Command
11:08:22 AM  1006    221218   41.00   59.00    0.00    0.00  100.00    53    604.00      0.00  794132  719556   0.27   8080.50      0.00      0.00       0  perf_experiment

# Time        UID       PID    %usr %system  %guest   %wait    %CPU   CPU  minflt/s  majflt/s     VSZ     RSS   %MEM   kB_rd/s   kB_wr/s kB_ccwr/s iodelay  Command
11:08:23 AM  1006    221218   34.00   66.00    0.00    0.00  100.00    53    651.00      0.00  794508  719916   0.27   8121.50      0.00      0.00       0  perf_experiment

# Time        UID       PID    %usr %system  %guest   %wait    %CPU   CPU  minflt/s  majflt/s     VSZ     RSS   %MEM   kB_rd/s   kB_wr/s kB_ccwr/s iodelay  Command
11:08:24 AM  1006    221218   39.00   61.00    0.00    0.00  100.00    53    657.00      0.00  795004  720340   0.27   8369.50      0.00      0.00       0  perf_experiment

# Time        UID       PID    %usr %system  %guest   %wait    %CPU   CPU  minflt/s  majflt/s     VSZ     RSS   %MEM   kB_rd/s   kB_wr/s kB_ccwr/s iodelay  Command
11:08:25 AM  1006    221218   43.00   57.00    0.00    0.00  100.00    53    618.00      0.00  795384  720720   0.27   7973.50      0.00      0.00       0  perf_experiment

# Time        UID       PID    %usr %system  %guest   %wait    %CPU   CPU  minflt/s  majflt/s     VSZ     RSS   %MEM   kB_rd/s   kB_wr/s kB_ccwr/s iodelay  Command
11:08:26 AM  1006    221218   37.00   63.00    0.00    0.00  100.00    53    832.00      0.00  795764  721148   0.27   7925.00      0.00      0.00       0  perf_experiment

# Time        UID       PID    %usr %system  %guest   %wait    %CPU   CPU  minflt/s  majflt/s     VSZ     RSS   %MEM   kB_rd/s   kB_wr/s kB_ccwr/s iodelay  Command
11:08:27 AM  1006    221218   39.00   60.00    0.00    0.00   99.00    53    752.00      0.00  796132  721548   0.27   8460.50      0.00      0.00       0  perf_experiment

# Time        UID       PID    %usr %system  %guest   %wait    %CPU   CPU  minflt/s  majflt/s     VSZ     RSS   %MEM   kB_rd/s   kB_wr/s kB_ccwr/s iodelay  Command
11:08:28 AM  1006    221218   35.00   64.00    0.00    0.00   99.00    53   8942.00      0.00  796508  721920   0.27   7484.50  32768.00      0.00       2  perf_experiment

# Time        UID       PID    %usr %system  %guest   %wait    %CPU   CPU  minflt/s  majflt/s     VSZ     RSS   %MEM   kB_rd/s   kB_wr/s kB_ccwr/s iodelay  Command
11:08:29 AM  1006    221218   32.00   67.00    0.00    0.00   99.00    53    666.00      0.00  796880  722304   0.27   8011.00      0.00      0.00       0  perf_experiment

# Time        UID       PID    %usr %system  %guest   %wait    %CPU   CPU  minflt/s  majflt/s     VSZ     RSS   %MEM   kB_rd/s   kB_wr/s kB_ccwr/s iodelay  Command
11:08:30 AM  1006    221218   39.00   62.00    0.00    0.00  101.00    53    646.00      0.00  797260  722712   0.27   8272.50      0.00      0.00       0  perf_experiment

# Time        UID       PID    %usr %system  %guest   %wait    %CPU   CPU  minflt/s  majflt/s     VSZ     RSS   %MEM   kB_rd/s   kB_wr/s kB_ccwr/s iodelay  Command
11:08:31 AM  1006    221218   27.00   72.00    0.00    0.00   99.00    53    612.00      0.00  797728  723080   0.27   7735.50      0.00      0.00       0  perf_experiment

# Time        UID       PID    %usr %system  %guest   %wait    %CPU   CPU  minflt/s  majflt/s     VSZ     RSS   %MEM   kB_rd/s   kB_wr/s kB_ccwr/s iodelay  Command
11:08:32 AM  1006    221218   34.00   67.00    0.00    0.00  101.00    53   1220.00      0.00  798088  723464   0.27   8150.00      0.00      0.00       0  perf_experiment

# Time        UID       PID    %usr %system  %guest   %wait    %CPU   CPU  minflt/s  majflt/s     VSZ     RSS   %MEM   kB_rd/s   kB_wr/s kB_ccwr/s iodelay  Command
11:08:33 AM  1006    221218   43.00   56.00    0.00    0.00   99.00    53    727.00      0.00  798472  723884   0.27   8420.50      0.00      0.00       0  perf_experiment

# Time        UID       PID    %usr %system  %guest   %wait    %CPU   CPU  minflt/s  majflt/s     VSZ     RSS   %MEM   kB_rd/s   kB_wr/s kB_ccwr/s iodelay  Command
11:08:34 AM  1006    221218   40.00   61.00    0.00    0.00  101.00    53    611.00      0.00  798840  724268   0.27   7888.00      0.00      0.00       0  perf_experiment

# Time        UID       PID    %usr %system  %guest   %wait    %CPU   CPU  minflt/s  majflt/s     VSZ     RSS   %MEM   kB_rd/s   kB_wr/s kB_ccwr/s iodelay  Command
11:08:35 AM  1006    221218   39.00   60.00    0.00    0.00   99.00    53    619.00      0.00  799224  724656   0.27   7828.50      0.00      0.00       0  perf_experiment

# Time        UID       PID    %usr %system  %guest   %wait    %CPU   CPU  minflt/s  majflt/s     VSZ     RSS   %MEM   kB_rd/s   kB_wr/s kB_ccwr/s iodelay  Command
11:08:36 AM  1006    221218   36.00   65.00    0.00    0.00  101.00    53    613.00      0.00  799704  725048   0.27   8012.00      0.00      0.00       0  perf_experiment

# Time        UID       PID    %usr %system  %guest   %wait    %CPU   CPU  minflt/s  majflt/s     VSZ     RSS   %MEM   kB_rd/s   kB_wr/s kB_ccwr/s iodelay  Command
11:08:37 AM  1006    221218   38.00   61.00    0.00    0.00   99.00    53    672.00      0.00  800072  725472   0.28   8326.00      0.00      0.00       0  perf_experiment

# Time        UID       PID    %usr %system  %guest   %wait    %CPU   CPU  minflt/s  majflt/s     VSZ     RSS   %MEM   kB_rd/s   kB_wr/s kB_ccwr/s iodelay  Command
11:08:38 AM  1006    221218   34.00   66.00    0.00    0.00  100.00    53    667.00      0.00  800468  725864   0.28   8029.00      0.00      0.00       0  perf_experiment

# Time        UID       PID    %usr %system  %guest   %wait    %CPU   CPU  minflt/s  majflt/s     VSZ     RSS   %MEM   kB_rd/s   kB_wr/s kB_ccwr/s iodelay  Command
11:08:39 AM  1006    221218   34.00   67.00    0.00    0.00  101.00    53    613.00      0.00  800852  726236   0.28   8035.00      0.00      0.00       0  perf_experiment

# Time        UID       PID    %usr %system  %guest   %wait    %CPU   CPU  minflt/s  majflt/s     VSZ     RSS   %MEM   kB_rd/s   kB_wr/s kB_ccwr/s iodelay  Command
11:08:40 AM  1006    221218   37.00   62.00    0.00    0.00   99.00    53    607.00      0.00  801220  726632   0.28   8059.00      0.00      0.00       0  perf_experiment

# Time        UID       PID    %usr %system  %guest   %wait    %CPU   CPU  minflt/s  majflt/s     VSZ     RSS   %MEM   kB_rd/s   kB_wr/s kB_ccwr/s iodelay  Command
11:08:41 AM  1006    221218   41.00   60.00    0.00    0.00  101.00    53    632.00      0.00  801612  727036   0.28   8245.50      0.00      0.00       0  perf_experiment

# Time        UID       PID    %usr %system  %guest   %wait    %CPU   CPU  minflt/s  majflt/s     VSZ     RSS   %MEM   kB_rd/s   kB_wr/s kB_ccwr/s iodelay  Command
11:08:42 AM  1006    221218   38.00   62.00    0.00    0.00  100.00    53    639.00      0.00  802004  727452   0.28   8061.50      0.00      0.00       0  perf_experiment

# Time        UID       PID    %usr %system  %guest   %wait    %CPU   CPU  minflt/s  majflt/s     VSZ     RSS   %MEM   kB_rd/s   kB_wr/s kB_ccwr/s iodelay  Command
11:08:43 AM  1006    221218   38.00   61.00    0.00    0.00   99.00    53    624.00      0.00  802488  727840   0.28   8037.00      0.00      0.00       0  perf_experiment

# Time        UID       PID    %usr %system  %guest   %wait    %CPU   CPU  minflt/s  majflt/s     VSZ     RSS   %MEM   kB_rd/s   kB_wr/s kB_ccwr/s iodelay  Command
11:08:44 AM  1006    221218   39.00   60.00    0.00    0.00   99.00    53   8801.00      0.00  802868  728244   0.28   7974.50  32768.00      0.00       2  perf_experiment

# Time        UID       PID    %usr %system  %guest   %wait    %CPU   CPU  minflt/s  majflt/s     VSZ     RSS   %MEM   kB_rd/s   kB_wr/s kB_ccwr/s iodelay  Command
11:08:45 AM  1006    221218   35.00   64.00    0.00    0.00   99.00    53    608.00      0.00  803236  728632   0.28   8027.50      0.00      0.00       0  perf_experiment

# Time        UID       PID    %usr %system  %guest   %wait    %CPU   CPU  minflt/s  majflt/s     VSZ     RSS   %MEM   kB_rd/s   kB_wr/s kB_ccwr/s iodelay  Command
11:08:46 AM  1006    221218   41.00   60.00    0.00    0.00  101.00    53    990.00      0.00  803608  729020   0.28   7796.50      0.00      0.00       0  perf_experiment

# Time        UID       PID    %usr %system  %guest   %wait    %CPU   CPU  minflt/s  majflt/s     VSZ     RSS   %MEM   kB_rd/s   kB_wr/s kB_ccwr/s iodelay  Command
11:08:47 AM  1006    221218   36.00   63.00    0.00    0.00   99.00    53    829.00      0.00  804004  729412   0.28   8278.00      0.00      0.00       0  perf_experiment

# Time        UID       PID    %usr %system  %guest   %wait    %CPU   CPU  minflt/s  majflt/s     VSZ     RSS   %MEM   kB_rd/s   kB_wr/s kB_ccwr/s iodelay  Command
11:08:48 AM  1006    221218   33.00   67.00    0.00    0.00  100.00    53    847.00      0.00  804372  729792   0.28   8046.50      0.00      0.00       0  perf_experiment

# Time        UID       PID    %usr %system  %guest   %wait    %CPU   CPU  minflt/s  majflt/s     VSZ     RSS   %MEM   kB_rd/s   kB_wr/s kB_ccwr/s iodelay  Command
11:08:49 AM  1006    221218   42.57   57.43    0.00    0.00  100.00    53    802.97      0.00  804752  730180   0.28   7929.70      0.00      0.00       0  perf_experiment

# Time        UID       PID    %usr %system  %guest   %wait    %CPU   CPU  minflt/s  majflt/s     VSZ     RSS   %MEM   kB_rd/s   kB_wr/s kB_ccwr/s iodelay  Command