4,Faster,1,5000000,2500000,8,32,52433,5000000


resource usage stats

Linux 5.4.0-42-generic (arcon1) 	10/25/2020 	_x86_64_	(64 CPU)

# Time        UID       PID    %usr %system  %guest   %wait    %CPU   CPU  minflt/s  majflt/s     VSZ     RSS   %MEM   kB_rd/s   kB_wr/s kB_ccwr/s iodelay  Command
03:49:35 AM  1006    219863   66.00   33.00    0.00    0.00   99.00     3 146216.00      0.00  665304  590472   0.22      0.00      4.00      0.00       0  perf_experiment

# Time        UID       PID    %usr %system  %guest   %wait    %CPU   CPU  minflt/s  majflt/s     VSZ     RSS   %MEM   kB_rd/s   kB_wr/s kB_ccwr/s iodelay  Command
03:49:36 AM  1006    219863   72.00   28.00    0.00    0.00  100.00     3   6225.00      0.00  675468  600648   0.23      0.00      0.00      0.00       0  perf_experiment

# Time        UID       PID    %usr %system  %guest   %wait    %CPU   CPU  minflt/s  majflt/s     VSZ     RSS   %MEM   kB_rd/s   kB_wr/s kB_ccwr/s iodelay  Command
03:49:37 AM  1006    219863   80.00   20.00    0.00    0.00  100.00     3  12234.00      0.00  685500  610652   0.23      0.00      0.00      0.00       0  perf_experiment

# Time        UID       PID    %usr %system  %guest   %wait    %CPU   CPU  minflt/s  majflt/s     VSZ     RSS   %MEM   kB_rd/s   kB_wr/s kB_ccwr/s iodelay  Command
03:49:38 AM  1006    219863   82.00   18.00    0.00    0.00  100.00     3  12637.00      0.00  695400  620648   0.24      0.00      0.00      0.00       0  perf_experiment

# Time        UID       PID    %usr %system  %guest   %wait    %CPU   CPU  minflt/s  majflt/s     VSZ     RSS   %MEM   kB_rd/s   kB_wr/s kB_ccwr/s iodelay  Command
03:49:39 AM  1006    219863   76.00   24.00    0.00    0.00  100.00     3  10707.00      0.00  705300  630484   0.24      0.00      0.00      0.00       0  perf_experiment

# Time        UID       PID    %usr %system  %guest   %wait    %CPU   CPU  minflt/s  majflt/s     VSZ     RSS   %MEM   kB_rd/s   kB_wr/s kB_ccwr/s iodelay  Command
03:49:40 AM  1006    219863   78.00   22.00    0.00    0.00  100.00     3  13313.00      0.00  715068  640280   0.24      0.00      0.00      0.00       0  perf_experiment

# Time        UID       PID    %usr %system  %guest   %wait    %CPU   CPU  minflt/s  majflt/s     VSZ     RSS   %MEM   kB_rd/s   kB_wr/s kB_ccwr/s iodelay  Command
03:49:41 AM  1006    219863   80.00   20.00    0.00    0.00  100.00     3  10570.00      0.00  724704  649948   0.25      0.00      0.00      0.00       0  perf_experiment

# Time        UID       PID    %usr %system  %guest   %wait    %CPU   CPU  minflt/s  majflt/s     VSZ     RSS   %MEM   kB_rd/s   kB_wr/s kB_ccwr/s iodelay  Command
03:49:42 AM  1006    219863   84.00   16.00    0.00    0.00  100.00     3  14011.00      0.00  734340  659524   0.25      0.00      0.00      0.00       0  perf_experiment

# Time        UID       PID    %usr %system  %guest   %wait    %CPU   CPU  minflt/s  majflt/s     VSZ     RSS   %MEM   kB_rd/s   kB_wr/s kB_ccwr/s iodelay  Command
03:49:43 AM  1006    219863   81.00   19.00    0.00    0.00  100.00     3  10530.00      0.00  743712  669000   0.25      0.00      0.00      0.00       0  perf_experiment

# Time        UID       PID    %usr %system  %guest   %wait    %CPU   CPU  minflt/s  majflt/s     VSZ     RSS   %MEM   kB_rd/s   kB_wr/s kB_ccwr/s iodelay  Command
03:49:44 AM  1006    219863   72.00   27.00    0.00    0.00   99.00     3  10254.00      0.00  753216  678376   0.26      0.00      0.00      0.00       0  perf_experiment

# Time        UID       PID    %usr %system  %guest   %wait    %CPU   CPU  minflt/s  majflt/s     VSZ     RSS   %MEM   kB_rd/s   kB_wr/s kB_ccwr/s iodelay  Command
03:49:45 AM  1006    219863   70.00   29.00    0.00    0.00   99.00     3  17995.00      0.00  762192  687404   0.26      0.00  32768.00      0.00       2  perf_experiment

# Time        UID       PID    %usr %system  %guest   %wait    %CPU   CPU  minflt/s  majflt/s     VSZ     RSS   %MEM   kB_rd/s   kB_wr/s kB_ccwr/s iodelay  Command
03:49:46 AM  1006    219863   75.00   25.00    0.00    0.00  100.00     3  15140.00      0.00  771300  696488   0.26      0.00      0.00      0.00       0  perf_experiment

# Time        UID       PID    %usr %system  %guest   %wait    %CPU   CPU  minflt/s  majflt/s     VSZ     RSS   %MEM   kB_rd/s   kB_wr/s kB_ccwr/s iodelay  Command
03:49:47 AM  1006    219863   87.00   10.00    0.00    0.00   97.00     3   9723.00      0.00  775384  700468   0.27   4226.00  32768.00      0.00       2  perf_experiment

# Time        UID       PID    %usr %system  %guest   %wait    %CPU   CPU  minflt/s  majflt/s     VSZ     RSS   %MEM   kB_rd/s   kB_wr/s kB_ccwr/s iodelay  Command
03:49:48 AM  1006    219863   96.00    4.00    0.00    0.00  100.00     3    288.00      0.00  775776  701064   0.27   7407.50      0.00      0.00       0  perf_experiment

# Time        UID       PID    %usr %system  %guest   %wait    %CPU   CPU  minflt/s  majflt/s     VSZ     RSS   %MEM   kB_rd/s   kB_wr/s kB_ccwr/s iodelay  Command
03:49:49 AM  1006    219863   98.00    3.00    0.00    0.00  101.00     3    467.00      0.00  776172  701504   0.27   7151.00      0.00      0.00       0  perf_experiment

# Time        UID       PID    %usr %system  %guest   %wait    %CPU   CPU  minflt/s  majflt/s     VSZ     RSS   %MEM   kB_rd/s   kB_wr/s kB_ccwr/s iodelay  Command
03:49:50 AM  1006    219863   95.00    4.00    0.00    0.00   99.00     3   1028.00      0.00  776704  701940   0.27   7289.00      0.00      0.00       0  perf_experiment

# Time        UID       PID    %usr %system  %guest   %wait    %CPU   CPU  minflt/s  majflt/s     VSZ     RSS   %MEM   kB_rd/s   kB_wr/s kB_ccwr/s iodelay  Command
03:49:51 AM  1006    219863   97.00    4.00    0.00    0.00  101.00     3    482.00      0.00  777100  702416   0.27   7422.50      0.00      0.00       0  perf_experiment

# Time        UID       PID    %usr %system  %guest   %wait    %CPU   CPU  minflt/s  majflt/s     VSZ     RSS   %MEM   kB_rd/s   kB_wr/s kB_ccwr/s iodelay  Command
03:49:52 AM  1006    219863   94.00    5.00    0.00    0.00   99.00     3    513.00      0.00  777628  702896   0.27   7617.50      0.00      0.00       0  perf_experiment

# Time        UID       PID    %usr %system  %guest   %wait    %CPU   CPU  minflt/s  majflt/s     VSZ     RSS   %MEM   kB_rd/s   kB_wr/s kB_ccwr/s iodelay  Command
03:49:53 AM  1006    219863   99.00    2.00    0.00    0.00  101.00     3    527.00      0.00  778160  703424   0.27   7619.50      0.00      0.00       0  perf_experiment

# Time        UID       PID    %usr %system  %guest   %wait    %CPU   CPU  minflt/s  majflt/s     VSZ     RSS   %MEM   kB_rd/s   kB_wr/s kB_ccwr/s iodelay  Command
03:49:54 AM  1006    219863   96.00    4.00    0.00    0.00  100.00     3    464.00      0.00  778560  703860   0.27   7133.50      0.00      0.00       0  perf_experiment

# Time        UID       PID    %usr %system  %guest   %wait    %CPU   CPU  minflt/s  majflt/s     VSZ     RSS   %MEM   kB_rd/s   kB_wr/s kB_ccwr/s iodelay  Command
03:49:55 AM  1006    219863   97.00    3.00    0.00    0.00  100.00     3   1010.00      0.00  779096  704268   0.27   7012.50      0.00      0.00       0  perf_experiment

# Time        UID       PID    %usr %system  %guest   %wait    %CPU   CPU  minflt/s  majflt/s     VSZ     RSS   %MEM   kB_rd/s   kB_wr/s kB_ccwr/s iodelay  Command
03:49:56 AM  1006    219863   96.00    4.00    0.00    0.00  100.00     3    504.00      0.00  779504  704788   0.27   7664.50      0.00      0.00       0  perf_experiment

# Time        UID       PID    %usr %system  %guest   %wait    %CPU   CPU  minflt/s  majflt/s     VSZ     RSS   %MEM   kB_rd/s   kB_wr/s kB_ccwr/s iodelay  Command
03:49:57 AM  1006    219863   98.00    2.00    0.00    0.00  100.00     3    547.00      0.00  780036  705264   0.27   7827.00      0.00      0.00       0  perf_experiment

# Time        UID       PID    %usr %system  %guest   %wait    %CPU   CPU  minflt/s  majflt/s     VSZ     RSS   %MEM   kB_rd/s   kB_wr/s kB_ccwr/s iodelay  Command
03:49:58 AM  1006    219863   97.00    3.00    0.00    0.00  100.00     3    486.00      0.00  780444  705732   0.27   7505.50      0.00      0.00       0  perf_experiment

# Time        UID       PID    %usr %system  %guest   %wait    %CPU   CPU  minflt/s  majflt/s     VSZ     RSS   %MEM   kB_rd/s   kB_wr/s kB_ccwr/s iodelay  Command
03:49:59 AM  1006    219863   97.00    3.00    0.00    0.00  100.00     3    486.00      0.00  780968  706208   0.27   7177.50      0.00      0.00       0  perf_experiment

# Time        UID       PID    %usr %system  %guest   %wait    %CPU   CPU  minflt/s  majflt/s     VSZ     RSS   %MEM   kB_rd/s   kB_wr/s kB_ccwr/s iodelay  Command
03:50:00 AM  1006    219863   97.00    3.00    0.00    0.00  100.00     3   1021.00      0.00  781364  706648   0.27   7385.00      0.00      0.00       0  perf_experiment

# Time        UID       PID    %usr %system  %guest   %wait    %CPU   CPU  minflt/s  majflt/s     VSZ     RSS   %MEM   kB_rd/s   kB_wr/s kB_ccwr/s iodelay  Command
03:50:01 AM  1006    219863   97.00    3.00    0.00    0.00  100.00     3    530.00      0.00  781904  707188   0.27   7860.00      0.00      0.00       0  perf_experiment

# Time        UID       PID    %usr %system  %guest   %wait    %CPU   CPU  minflt/s  majflt/s     VSZ     RSS   %MEM   kB_rd/s   kB_wr/s kB_ccwr/s iodelay  Command
03:50:02 AM  1006    219863   92.00    5.00    0.00    0.00   97.00     3   8681.00      0.00  782440  707596   0.27   7218.00  32768.00      0.00       2  perf_experiment

# Time        UID       PID    %usr %system  %guest   %wait    %CPU   CPU  minflt/s  majflt/s     VSZ     RSS   %MEM   kB_rd/s   kB_wr/s kB_ccwr/s iodelay  Command
03:50:03 AM  1006    219863   96.00    4.00    0.00    0.00  100.00     3    478.00      0.00  782824  708112   0.27   7169.00      0.00      0.00       0  perf_experiment

# Time        UID       PID    %usr %system  %guest   %wait    %CPU   CPU  minflt/s  majflt/s     VSZ     RSS   %MEM   kB_rd/s   kB_wr/s kB_ccwr/s iodelay  Command
03:50:04 AM  1006    219863   96.00    4.00    0.00    0.00  100.00     3    472.00      0.00  783224  708548   0.27   7284.00      0.00      0.00       0  perf_experiment

# Time        UID       PID    %usr %system  %guest   %wait    %CPU   CPU  minflt/s  majflt/s     VSZ     RSS   %MEM   kB_rd/s   kB_wr/s kB_ccwr/s iodelay  Command
03:50:05 AM  1006    219863   98.00    2.00    0.00    0.00  100.00     3    541.00      0.00  783748  709032   0.27   7759.00      0.00      0.00       0  perf_experiment

# Time        UID       PID    %usr %system  %guest   %wait    %CPU   CPU  minflt/s  majflt/s     VSZ     RSS   %MEM   kB_rd/s   kB_wr/s kB_ccwr/s iodelay  Command
03:50:06 AM  1006    219863   97.00    3.00    0.00    0.00  100.00     3    584.00      0.00  784280  709492   0.27   7384.50      0.00      0.00       0  perf_experiment

# Time        UID       PID    %usr %system  %guest   %wait    %CPU   CPU  minflt/s  majflt/s     VSZ     RSS   %MEM   kB_rd/s   kB_wr/s kB_ccwr/s iodelay  Command
03:50:07 AM  1006    219863   97.00    3.00    0.00    0.00  100.00     3    492.00      0.00  784688  709932   0.27   7222.50      0.00      0.00       0  perf_experiment

# Time        UID       PID    %usr %system  %guest   %wait    %CPU   CPU  minflt/s  majflt/s     VSZ     RSS   %MEM   kB_rd/s   kB_wr/s kB_ccwr/s iodelay  Command
03:50:08 AM  1006    219863   97.00    3.00    0.00    0.00  100.00     3    540.00      0.00  785216  710416   0.27   7330.50      0.00      0.00       0  perf_experiment

# Time        UID       PID    %usr %system  %guest   %wait    %CPU   CPU  minflt/s  majflt/s     VSZ     RSS   %MEM   kB_rd/s   kB_wr/s kB_ccwr/s iodelay  Command
03:50:09 AM  1006    219863   97.00    3.00    0.00    0.00  100.00     3    860.00      0.00  785620  710904   0.27   7335.00      0.00      0.00       0  perf_experiment

# Time        UID       PID    %usr %system  %guest   %wait    %CPU   CPU  minflt/s  majflt/s     VSZ     RSS   %MEM   kB_rd/s   kB_wr/s kB_ccwr/s iodelay  Command
03:50:10 AM  1006    219863   98.00    2.00    0.00    0.00  100.00     3    491.00      0.00  786164  711392   0.27   7142.00      0.00      0.00       0  perf_experiment

# Time        UID       PID    %usr %system  %guest   %wait    %CPU   CPU  minflt/s  majflt/s     VSZ     RSS   %MEM   kB_rd/s   kB_wr/s kB_ccwr/s iodelay  Command
03:50:11 AM  1006    219863   96.00    4.00    0.00    0.00  100.00     3    520.00      0.00  786556  711824   0.27   7740.50      0.00      0.00       0  perf_experiment

# Time        UID       PID    %usr %system  %guest   %wait    %CPU   CPU  minflt/s  majflt/s     VSZ     RSS   %MEM   kB_rd/s   kB_wr/s kB_ccwr/s iodelay  Command
03:50:12 AM  1006    219863   97.00    3.00    0.00    0.00  100.00     3    642.00      0.00  787076  712308   0.27   7447.50      0.00      0.00       0  perf_experiment

# Time        UID       PID    %usr %system  %guest   %wait    %CPU   CPU  minflt/s  majflt/s     VSZ     RSS   %MEM   kB_rd/s   kB_wr/s kB_ccwr/s iodelay  Command
03:50:13 AM  1006    219863   97.00    3.00    0.00    0.00  100.00     3    768.00      0.00  787468  712736   0.27   7235.50      0.00      0.00       0  perf_experiment

# Time        UID       PID    %usr %system  %guest   %wait    %CPU   CPU  minflt/s  majflt/s     VSZ     RSS   %MEM   kB_rd/s   kB_wr/s kB_ccwr/s iodelay  Command
03:50:14 AM  1006    219863   97.00    3.00    0.00    0.00  100.00     3    545.00      0.00  787992  713204   0.27   7571.50      0.00      0.00       0  perf_experiment

# Time        UID       PID    %usr %system  %guest   %wait    %CPU   CPU  minflt/s  majflt/s     VSZ     RSS   %MEM   kB_rd/s   kB_wr/s kB_ccwr/s iodelay  Command
03:50:15 AM  1006    219863   96.00    4.00    0.00    0.00  100.00     3    478.00      0.00  788388  713700   0.27   7397.50      0.00      0.00       0  perf_experiment

# Time        UID       PID    %usr %system  %guest   %wait    %CPU   CPU  minflt/s  majflt/s     VSZ     RSS   %MEM   kB_rd/s   kB_wr/s kB_ccwr/s iodelay  Command
03:50:16 AM  1006    219863   97.00    3.00    0.00    0.00  100.00     3    534.00      0.00  788928  714216   0.27   7384.50      0.00      0.00       0  perf_experiment

# Time        UID       PID    %usr %system  %guest   %wait    %CPU   CPU  minflt/s  majflt/s     VSZ     RSS   %MEM   kB_rd/s   kB_wr/s kB_ccwr/s iodelay  Command
03:50:17 AM  1006    219863   97.00    3.00    0.00    0.00  100.00     3    524.00      0.00  789444  714656   0.27   7368.50      0.00      0.00       0  perf_experiment

# Time        UID       PID    %usr %system  %guest   %wait    %CPU   CPU  minflt/s  majflt/s     VSZ     RSS   %MEM   kB_rd/s   kB_wr/s kB_ccwr/s iodelay  Command
03:50:18 AM  1006    219863   98.00    2.00    0.00    0.00  100.00     3    549.00      0.00  789844  715136   0.27   7771.00      0.00      0.00       0  perf_experiment

# Time        UID       PID    %usr %system  %guest   %wait    %CPU   CPU  minflt/s  majflt/s     VSZ     RSS   %MEM   kB_rd/s   kB_wr/s kB_ccwr/s iodelay  Command
03:50:19 AM  1006    219863   97.00    3.00    0.00    0.00  100.00     3    509.00      0.00  790376  715588   0.27   7546.50      0.00      0.00       0  perf_experiment

# Time        UID       PID    %usr %system  %guest   %wait    %CPU   CPU  minflt/s  majflt/s     VSZ     RSS   %MEM   kB_rd/s   kB_wr/s kB_ccwr/s iodelay  Command
03:50:20 AM  1006    219863   98.00    2.00    0.00    0.00  100.00     3    501.00      0.00  790776  716068   0.27   7201.50      0.00      0.00       0  perf_experiment

# Time        UID       PID    %usr %system  %guest   %wait    %CPU   CPU  minflt/s  majflt/s     VSZ     RSS   %MEM   kB_rd/s   kB_wr/s kB_ccwr/s iodelay  Command
03:50:21 AM  1006    219863   98.00    2.00    0.00    0.00  100.00     3    717.00      0.00  791292  716548   0.27   7343.00      0.00      0.00       0  perf_experiment

# Time        UID       PID    %usr %system  %guest   %wait    %CPU   CPU  minflt/s  majflt/s     VSZ     RSS   %MEM   kB_rd/s   kB_wr/s kB_ccwr/s iodelay  Command
03:50:22 AM  1006    219863   96.00    4.00    0.00    0.00  100.00     3    672.00      0.00  791820  717032   0.27   7792.00      0.00      0.00       0  perf_experiment

# Time        UID       PID    %usr %system  %guest   %wait    %CPU   CPU  minflt/s  majflt/s     VSZ     RSS   %MEM   kB_rd/s   kB_wr/s kB_ccwr/s iodelay  Command
03:50:23 AM  1006    219863   96.00    4.00    0.00    0.00  100.00     3    588.00      0.00  792212  717528   0.27   7542.50      0.00      0.00       0  perf_experiment

# Time        UID       PID    %usr %system  %guest   %wait    %CPU   CPU  minflt/s  majflt/s     VSZ     RSS   %MEM   kB_rd/s   kB_wr/s kB_ccwr/s iodelay  Command
03:50:24 AM  1006    219863   95.00    2.00    0.00    0.00   97.00     3   8740.00      0.00  792608  717924   0.27   6839.50  32768.00      0.00       3  perf_experiment

# Time        UID       PID    %usr %system  %guest   %wait    %CPU   CPU  minflt/s  majflt/s     VSZ     RSS   %MEM   kB_rd/s   kB_wr/s kB_ccwr/s iodelay  Command
03:50:25 AM  1006    219863   98.00    2.00    0.00    0.00  100.00     3    492.00      0.00  793140  718412   0.27   7167.50      0.00      0.00       0  perf_experiment

# Time        UID       PID    %usr %system  %guest   %wait    %CPU   CPU  minflt/s  majflt/s     VSZ     RSS   %MEM   kB_rd/s   kB_wr/s kB_ccwr/s iodelay  Command
03:50:26 AM  1006    219863   97.00    4.00    0.00    0.00  101.00     3   1078.00      0.00  793672  718900   0.27   7843.50      0.00      0.00       0  perf_experiment

# Time        UID       PID    %usr %system  %guest   %wait    %CPU   CPU  minflt/s  majflt/s     VSZ     RSS   %MEM   kB_rd/s   kB_wr/s kB_ccwr/s iodelay  Command
03:50:27 AM  1006    219863   97.00    2.00    0.00    0.00   99.00     3    487.00      0.00  794068  719360   0.27   7541.50      0.00      0.00       0  perf_experiment

# Time        UID       PID    %usr %system  %guest   %wait    %CPU   CPU  minflt/s  majflt/s     VSZ     RSS   %MEM   kB_rd/s   kB_wr/s kB_ccwr/s iodelay  Command
03:50:28 AM  1006    219863   98.00    2.00    0.00    0.00  100.00     3    519.00      0.00  794596  719784   0.27   7197.00      0.00      0.00       0  perf_experiment

# Time        UID       PID    %usr %system  %guest   %wait    %CPU   CPU  minflt/s  majflt/s     VSZ     RSS   %MEM   kB_rd/s   kB_wr/s kB_ccwr/s iodelay  Command
03:50:29 AM  1006    219863   97.00    4.00    0.00    0.00  101.00     3    499.00      0.00  794996  720280   0.27   7127.50      0.00      0.00       0  perf_experiment

# Time        UID       PID    %usr %system  %guest   %wait    %CPU   CPU  minflt/s  majflt/s     VSZ     RSS   %MEM   kB_rd/s   kB_wr/s kB_ccwr/s iodelay  Command
03:50:30 AM  1006    219863   94.00    5.00    0.00    0.00   99.00     3    527.00      0.00  795528  720692   0.27   7292.00      0.00      0.00       0  perf_experiment

# Time        UID       PID    %usr %system  %guest   %wait    %CPU   CPU  minflt/s  majflt/s     VSZ     RSS   %MEM   kB_rd/s   kB_wr/s kB_ccwr/s iodelay  Command
03:50:31 AM  1006    219863   98.00    3.00    0.00    0.00  101.00     3    497.00      0.00  796056  721204   0.27   7485.00      0.00      0.00       0  perf_experiment

# Time        UID       PID    %usr %system  %guest   %wait    %CPU   CPU  minflt/s  majflt/s     VSZ     RSS   %MEM   kB_rd/s   kB_wr/s kB_ccwr/s iodelay  Command
03:50:32 AM  1006    219863   95.00    4.00    0.00    0.00   99.00     3    559.00      0.00  796456  721760   0.27   7897.00      0.00      0.00       0  perf_experiment

# Time        UID       PID    %usr %system  %guest   %wait    %CPU   CPU  minflt/s  majflt/s     VSZ     RSS   %MEM   kB_rd/s   kB_wr/s kB_ccwr/s iodelay  Command
03:50:33 AM  1006    219863   98.00    2.00    0.00    0.00  100.00     3    488.00      0.00  796852  722172   0.27   7545.00      0.00      0.00       0  perf_experiment

# Time        UID       PID    %usr %system  %guest   %wait    %CPU   CPU  minflt/s  majflt/s     VSZ     RSS   %MEM   kB_rd/s   kB_wr/s kB_ccwr/s iodelay  Command
03:50:34 AM  1006    219863   97.00    3.00    0.00    0.00  100.00     3    506.00      0.00  797384  722660   0.27   7139.00      0.00      0.00       0  perf_experiment

# Time        UID       PID    %usr %system  %guest   %wait    %CPU   CPU  minflt/s  majflt/s     VSZ     RSS   %MEM   kB_rd/s   kB_wr/s kB_ccwr/s iodelay  Command
03:50:35 AM  1006    219863   95.00    5.00    0.00    0.00  100.00     3    500.00      0.00  797916  723144   0.27   7237.50      0.00      0.00       0  perf_experiment

# Time        UID       PID    %usr %system  %guest   %wait    %CPU   CPU  minflt/s  majflt/s     VSZ     RSS   %MEM   kB_rd/s   kB_wr/s kB_ccwr/s iodelay  Command
03:50:36 AM  1006    219863   95.00    6.00    0.00    0.00  101.00     3    730.00      0.00  798308  723604   0.27   7805.00      0.00      0.00       0  perf_experiment

# Time        UID       PID    %usr %system  %guest   %wait    %CPU   CPU  minflt/s  majflt/s     VSZ     RSS   %MEM   kB_rd/s   kB_wr/s kB_ccwr/s iodelay  Command
03:50:37 AM  1006    219863   96.00    3.00    0.00    0.00   99.00     3    690.00      0.00  798836  724068   0.27   7620.00      0.00      0.00       0  perf_experiment

# Time        UID       PID    %usr %system  %guest   %wait    %CPU   CPU  minflt/s  majflt/s     VSZ     RSS   %MEM   kB_rd/s   kB_wr/s kB_ccwr/s iodelay  Command
03:50:38 AM  1006    219863   97.00    3.00    0.00    0.00  100.00     3    701.00      0.00  799232  724516   0.27   7537.50      0.00      0.00       0  perf_experiment

# Time        UID       PID    %usr %system  %guest   %wait    %CPU   CPU  minflt/s  majflt/s     VSZ     RSS   %MEM   kB_rd/s   kB_wr/s kB_ccwr/s iodelay  Command
03:50:39 AM  1006    219863   95.00    5.00    0.00    0.00  100.00     3    689.00      0.00  799760  725016   0.27   7471.00      0.00      0.00       0  perf_experiment

# Time        UID       PID    %usr %system  %guest   %wait    %CPU   CPU  minflt/s  majflt/s     VSZ     RSS   %MEM   kB_rd/s   kB_wr/s kB_ccwr/s iodelay  Command
03:50:40 AM  1006    219863   97.00    3.00    0.00    0.00  100.00     3    534.00      0.00  800292  725476   0.28   7216.50      0.00      0.00       0  perf_experiment

# Time        UID       PID    %usr %system  %guest   %wait    %CPU   CPU  minflt/s  majflt/s     VSZ     RSS   %MEM   kB_rd/s   kB_wr/s kB_ccwr/s iodelay  Command
03:50:41 AM  1006    219863   96.00    5.00    0.00    0.00  101.00     3    520.00      0.00  800692  725952   0.28   7536.00      0.00      0.00       0  perf_experiment

# Time        UID       PID    %usr %system  %guest   %wait    %CPU   CPU  minflt/s  majflt/s     VSZ     RSS   %MEM   kB_rd/s   kB_wr/s kB_ccwr/s iodelay  Command
03:50:42 AM  1006    219863   96.00    4.00    0.00    0.00  100.00     3   1121.00      0.00  801208  726468   0.28   7586.50      0.00      0.00       0  perf_experiment

# Time        UID       PID    %usr %system  %guest   %wait    %CPU   CPU  minflt/s  majflt/s     VSZ     RSS   %MEM   kB_rd/s   kB_wr/s kB_ccwr/s iodelay  Command
03:50:43 AM  1006    219863   98.00    1.00    0.00    0.00   99.00     3    509.00      0.00  801612  726900   0.28   7475.00      0.00      0.00       0  perf_experiment

# Time        UID       PID    %usr %system  %guest   %wait    %CPU   CPU  minflt/s  majflt/s     VSZ     RSS   %MEM   kB_rd/s   kB_wr/s kB_ccwr/s iodelay  Command
03:50:44 AM  1006    219863   97.00    3.00    0.00    0.00  100.00     3    517.00      0.00  802140  727404   0.28   7242.00      0.00      0.00       0  perf_experiment

# Time        UID       PID    %usr %system  %guest   %wait    %CPU   CPU  minflt/s  majflt/s     VSZ     RSS   %MEM   kB_rd/s   kB_wr/s kB_ccwr/s iodelay  Command
03:50:45 AM  1006    219863   98.00    3.00    0.00    0.00  101.00     3    512.00      0.00  802668  727880   0.28   7558.00      0.00      0.00       0  perf_experiment

# Time        UID       PID    %usr %system  %guest   %wait    %CPU   CPU  minflt/s  majflt/s     VSZ     RSS   %MEM   kB_rd/s   kB_wr/s kB_ccwr/s iodelay  Command
03:50:46 AM  1006    219863   94.00    3.00    0.00    0.00   97.00     3   8682.00      0.00  803068  728356   0.28   7282.50  32768.00      0.00       2  perf_experiment

# Time        UID       PID    %usr %system  %guest   %wait    %CPU   CPU  minflt/s  majflt/s     VSZ     RSS   %MEM   kB_rd/s   kB_wr/s kB_ccwr/s iodelay  Command
03:50:47 AM  1006    219863   96.00    4.00    0.00    0.00  100.00     3    483.00      0.00  803472  728776   0.28   7430.00      0.00      0.00       0  perf_experiment

# Time        UID       PID    %usr %system  %guest   %wait    %CPU   CPU  minflt/s  majflt/s     VSZ     RSS   %MEM   kB_rd/s   kB_wr/s kB_ccwr/s iodelay  Command
03:50:48 AM  1006    219863   97.00    3.00    0.00    0.00  100.00     3    522.00      0.00  804008  729236   0.28   7270.50      0.00      0.00       0  perf_experiment

# Time        UID       PID    %usr %system  %guest   %wait    %CPU   CPU  minflt/s  majflt/s     VSZ     RSS   %MEM   kB_rd/s   kB_wr/s kB_ccwr/s iodelay  Command
03:50:49 AM  1006    219863   98.00    2.00    0.00    0.00  100.00     3    517.00      0.00  804416  729716   0.28   7457.00      0.00      0.00       0  perf_experiment

# Time        UID       PID    %usr %system  %guest   %wait    %CPU   CPU  minflt/s  majflt/s     VSZ     RSS   %MEM   kB_rd/s   kB_wr/s kB_ccwr/s iodelay  Command
03:50:50 AM  1006    219863   97.00    3.00    0.00    0.00  100.00     3    514.00      0.00  804960  730148   0.28   7475.00      0.00      0.00       0  perf_experiment

# Time        UID       PID    %usr %system  %guest   %wait    %CPU   CPU  minflt/s  majflt/s     VSZ     RSS   %MEM   kB_rd/s   kB_wr/s kB_ccwr/s iodelay  Command
03:50:51 AM  1006    219863   98.00    2.00    0.00    0.00  100.00     3    486.00      0.00  805368  730660   0.28   7474.50      0.00      0.00       0  perf_experiment

# Time        UID       PID    %usr %system  %guest   %wait    %CPU   CPU  minflt/s  majflt/s     VSZ     RSS   %MEM   kB_rd/s   kB_wr/s kB_ccwr/s iodelay  Command
03:50:52 AM  1006    219863   96.00    4.00    0.00    0.00  100.00     3    509.00      0.00  805908  731080   0.28   7300.50      0.00      0.00       0  perf_experiment

# Time        UID       PID    %usr %system  %guest   %wait    %CPU   CPU  minflt/s  majflt/s     VSZ     RSS   %MEM   kB_rd/s   kB_wr/s kB_ccwr/s iodelay  Command
03:50:53 AM  1006    219863   99.00    1.00    0.00    0.00  100.00     3    497.00      0.00  806308  731580   0.28   7331.00      0.00      0.00       0  perf_experiment

# Time        UID       PID    %usr %system  %guest   %wait    %CPU   CPU  minflt/s  majflt/s     VSZ     RSS   %MEM   kB_rd/s   kB_wr/s kB_ccwr/s iodelay  Command
03:50:54 AM  1006    219863   96.00    4.00    0.00    0.00  100.00     3    508.00      0.00  806828  732032   0.28   7542.50      0.00      0.00       0  perf_experiment

# Time        UID       PID    %usr %system  %guest   %wait    %CPU   CPU  minflt/s  majflt/s     VSZ     RSS   %MEM   kB_rd/s   kB_wr/s kB_ccwr/s iodelay  Command
03:50:55 AM  1006    219863   97.00    4.00    0.00    0.00  101.00     3    519.00      0.00  807236  732512   0.28   7117.00      0.00      0.00       0  perf_experiment

# Time        UID       PID    %usr %system  %guest   %wait    %CPU   CPU  minflt/s  majflt/s     VSZ     RSS   %MEM   kB_rd/s   kB_wr/s kB_ccwr/s iodelay  Command
03:50:56 AM  1006    219863   96.00    3.00    0.00    0.00   99.00     3    850.00      0.00  807764  732976   0.28   7391.00      0.00      0.00       0  perf_experiment

# Time        UID       PID    %usr %system  %guest   %wait    %CPU   CPU  minflt/s  majflt/s     VSZ     RSS   %MEM   kB_rd/s   kB_wr/s kB_ccwr/s iodelay  Command
03:50:57 AM  1006    219863   96.00    5.00    0.00    0.00  101.00     3    827.00      0.00  808152  733460   0.28   7657.00      0.00      0.00       0  perf_experiment

# Time        UID       PID    %usr %system  %guest   %wait    %CPU   CPU  minflt/s  majflt/s     VSZ     RSS   %MEM   kB_rd/s   kB_wr/s kB_ccwr/s iodelay  Command
03:50:58 AM  1006    219863   96.00    3.00    0.00    0.00   99.00     3    802.00      0.00  808688  733964   0.28   7388.50      0.00      0.00       0  perf_experiment

# Time        UID       PID    %usr %system  %guest   %wait    %CPU   CPU  minflt/s  majflt/s     VSZ     RSS   %MEM   kB_rd/s   kB_wr/s kB_ccwr/s iodelay  Command
03:50:59 AM  1006    219863   98.00    2.00    0.00    0.00  100.00     3    695.00      0.00  809192  734404   0.28   7528.00      0.00      0.00       0  perf_experiment

# Time        UID       PID    %usr %system  %guest   %wait    %CPU   CPU  minflt/s  majflt/s     VSZ     RSS   %MEM   kB_rd/s   kB_wr/s kB_ccwr/s iodelay  Command
03:51:00 AM  1006    219863   95.00    5.00    0.00    0.00  100.00     3    530.00      0.00  809596  734864   0.28   7518.00      0.00      0.00       0  perf_experiment

# Time        UID       PID    %usr %system  %guest   %wait    %CPU   CPU  minflt/s  majflt/s     VSZ     RSS   %MEM   kB_rd/s   kB_wr/s kB_ccwr/s iodelay  Command
03:51:01 AM  1006    219863   97.00    3.00    0.00    0.00  100.00     3    556.00      0.00  810140  735380   0.28   7405.00      0.00      0.00       0  perf_experiment

# Time        UID       PID    %usr %system  %guest   %wait    %CPU   CPU  minflt/s  majflt/s     VSZ     RSS   %MEM   kB_rd/s   kB_wr/s kB_ccwr/s iodelay  Command
03:51:02 AM  1006    219863   97.00    3.00    0.00    0.00  100.00     3    704.00      0.00  810544  735816   0.28   7275.00      0.00      0.00       0  perf_experiment

# Time        UID       PID    %usr %system  %guest   %wait    %CPU   CPU  minflt/s  majflt/s     VSZ     RSS   %MEM   kB_rd/s   kB_wr/s kB_ccwr/s iodelay  Command