4,Sled,1,5000000,2500000,512,2048,61155,5000000


resource usage stats

Linux 5.4.0-42-generic (arcon1) 	10/25/2020 	_x86_64_	(64 CPU)

# Time        UID       PID    %usr %system  %guest   %wait    %CPU   CPU  minflt/s  majflt/s     VSZ     RSS   %MEM   kB_rd/s   kB_wr/s kB_ccwr/s iodelay  Command
08:07:09 AM  1006    220707   91.00   88.00    0.00    0.00  179.00     3 175766.00      0.00  847436  228080   0.09      0.00 474636.00      0.00       0  perf_experiment

# Time        UID       PID    %usr %system  %guest   %wait    %CPU   CPU  minflt/s  majflt/s     VSZ     RSS   %MEM   kB_rd/s   kB_wr/s kB_ccwr/s iodelay  Command
08:07:10 AM  1006    220707   91.00   96.00    0.00    0.00  187.00     3 158793.00      0.00  970908  351516   0.13      0.00 504680.00      0.00       0  perf_experiment

# Time        UID       PID    %usr %system  %guest   %wait    %CPU   CPU  minflt/s  majflt/s     VSZ     RSS   %MEM   kB_rd/s   kB_wr/s kB_ccwr/s iodelay  Command
08:07:11 AM  1006    220707   92.00   83.00    0.00    0.00  175.00     3 182790.00      0.00 1031068  411852   0.16      0.00 436892.00      0.00       0  perf_experiment

# Time        UID       PID    %usr %system  %guest   %wait    %CPU   CPU  minflt/s  majflt/s     VSZ     RSS   %MEM   kB_rd/s   kB_wr/s kB_ccwr/s iodelay  Command
08:07:12 AM  1006    220707  102.00   57.00    0.00    0.00  159.00     3  49228.00      0.00 1031552  413500   0.16      0.00 177672.00      0.00       0  perf_experiment

# Time        UID       PID    %usr %system  %guest   %wait    %CPU   CPU  minflt/s  majflt/s     VSZ     RSS   %MEM   kB_rd/s   kB_wr/s kB_ccwr/s iodelay  Command
08:07:13 AM  1006    220707   98.00   67.00    0.00    0.00  165.00     3 118248.00      0.00 1032076  414824   0.16      0.00 221192.00      0.00       0  perf_experiment

# Time        UID       PID    %usr %system  %guest   %wait    %CPU   CPU  minflt/s  majflt/s     VSZ     RSS   %MEM   kB_rd/s   kB_wr/s kB_ccwr/s iodelay  Command
08:07:14 AM  1006    220707   92.00   81.00    0.00    0.00  173.00     3 110314.00      0.00 1037636  420068   0.16      0.00 382464.00      0.00       0  perf_experiment

# Time        UID       PID    %usr %system  %guest   %wait    %CPU   CPU  minflt/s  majflt/s     VSZ     RSS   %MEM   kB_rd/s   kB_wr/s kB_ccwr/s iodelay  Command
08:07:15 AM  1006    220707   99.00   75.00    0.00    0.00  174.00     3 100598.00      0.00 1042928  425484   0.16      0.00 381384.00      0.00       0  perf_experiment

# Time        UID       PID    %usr %system  %guest   %wait    %CPU   CPU  minflt/s  majflt/s     VSZ     RSS   %MEM   kB_rd/s   kB_wr/s kB_ccwr/s iodelay  Command
08:07:16 AM  1006    220707   93.00   88.00    0.00    0.00  181.00     3 142272.00      0.00 1043916  426572   0.16      0.00 301128.00      0.00       0  perf_experiment

# Time        UID       PID    %usr %system  %guest   %wait    %CPU   CPU  minflt/s  majflt/s     VSZ     RSS   %MEM   kB_rd/s   kB_wr/s kB_ccwr/s iodelay  Command
08:07:17 AM  1006    220707   93.00   93.00    0.00    0.00  186.00     3  96117.00      0.00 1050212  432716   0.16      0.00 322056.00      0.00       0  perf_experiment

# Time        UID       PID    %usr %system  %guest   %wait    %CPU   CPU  minflt/s  majflt/s     VSZ     RSS   %MEM   kB_rd/s   kB_wr/s kB_ccwr/s iodelay  Command
08:07:18 AM  1006    220707   95.00   69.00    0.00    0.00  164.00     3  49441.00      0.00 1052988  435760   0.17      0.00 187912.00      0.00       0  perf_experiment

# Time        UID       PID    %usr %system  %guest   %wait    %CPU   CPU  minflt/s  majflt/s     VSZ     RSS   %MEM   kB_rd/s   kB_wr/s kB_ccwr/s iodelay  Command
08:07:19 AM  1006    220707   89.00   54.00    0.00    0.00  143.00     3  22079.00      0.00 1053512  437744   0.17      0.00  84596.00      0.00       0  perf_experiment

# Time        UID       PID    %usr %system  %guest   %wait    %CPU   CPU  minflt/s  majflt/s     VSZ     RSS   %MEM   kB_rd/s   kB_wr/s kB_ccwr/s iodelay  Command
08:07:20 AM  1006    220707   99.00   71.00    0.00    0.00  170.00     3 103153.00      0.00 1054560  440448   0.17      0.00 219036.00      0.00       0  perf_experiment

# Time        UID       PID    %usr %system  %guest   %wait    %CPU   CPU  minflt/s  majflt/s     VSZ     RSS   %MEM   kB_rd/s   kB_wr/s kB_ccwr/s iodelay  Command
08:07:21 AM  1006    220707   94.00   88.00    0.00    0.00  182.00     3  84762.00      0.00 1054036  439808   0.17      0.00 275972.00      0.00       0  perf_experiment

# Time        UID       PID    %usr %system  %guest   %wait    %CPU   CPU  minflt/s  majflt/s     VSZ     RSS   %MEM   kB_rd/s   kB_wr/s kB_ccwr/s iodelay  Command
08:07:22 AM  1006    220707  100.00   78.00    0.00    0.00  178.00     3  49390.00      0.00 1052464  437884   0.17      0.00 276992.00      0.00       0  perf_experiment

# Time        UID       PID    %usr %system  %guest   %wait    %CPU   CPU  minflt/s  majflt/s     VSZ     RSS   %MEM   kB_rd/s   kB_wr/s kB_ccwr/s iodelay  Command
08:07:23 AM  1006    220707   93.00   76.00    0.00    0.00  169.00     3  23830.00      0.00 1052464  437956   0.17      0.00 221496.00      0.00       0  perf_experiment

# Time        UID       PID    %usr %system  %guest   %wait    %CPU   CPU  minflt/s  majflt/s     VSZ     RSS   %MEM   kB_rd/s   kB_wr/s kB_ccwr/s iodelay  Command
08:07:24 AM  1006    220707   91.00   51.00    0.00    0.00  142.00     3  23343.00      0.00 1066264  453492   0.17      0.00  75984.00      0.00       0  perf_experiment

# Time        UID       PID    %usr %system  %guest   %wait    %CPU   CPU  minflt/s  majflt/s     VSZ     RSS   %MEM   kB_rd/s   kB_wr/s kB_ccwr/s iodelay  Command
08:07:25 AM  1006    220707   84.00   56.00    0.00    0.00  140.00     3  18589.00      0.00 1067252  453604   0.17      0.00  71688.00      0.00       0  perf_experiment

# Time        UID       PID    %usr %system  %guest   %wait    %CPU   CPU  minflt/s  majflt/s     VSZ     RSS   %MEM   kB_rd/s   kB_wr/s kB_ccwr/s iodelay  Command
08:07:26 AM  1006    220707   97.00   96.00    0.00    0.00  193.00     3  92757.00      0.00 1069092  456132   0.17      0.00 366600.00      0.00       0  perf_experiment

# Time        UID       PID    %usr %system  %guest   %wait    %CPU   CPU  minflt/s  majflt/s     VSZ     RSS   %MEM   kB_rd/s   kB_wr/s kB_ccwr/s iodelay  Command
08:07:27 AM  1006    220707   94.00  108.00    0.00    0.00  202.00     3  95171.00      0.00 1068192  454588   0.17      0.00 376352.00      0.00       0  perf_experiment

# Time        UID       PID    %usr %system  %guest   %wait    %CPU   CPU  minflt/s  majflt/s     VSZ     RSS   %MEM   kB_rd/s   kB_wr/s kB_ccwr/s iodelay  Command
08:07:28 AM  1006    220707   98.00  100.00    0.00    0.00  198.00     3 100862.00      0.00 1068716  455020   0.17      0.00 397832.00      0.00       0  perf_experiment

# Time        UID       PID    %usr %system  %guest   %wait    %CPU   CPU  minflt/s  majflt/s     VSZ     RSS   %MEM   kB_rd/s   kB_wr/s kB_ccwr/s iodelay  Command
08:07:29 AM  1006    220707   99.00   95.00    0.00    0.00  194.00     3  98638.00      0.00 1071084  457456   0.17      0.00 387280.00      0.00       0  perf_experiment

# Time        UID       PID    %usr %system  %guest   %wait    %CPU   CPU  minflt/s  majflt/s     VSZ     RSS   %MEM   kB_rd/s   kB_wr/s kB_ccwr/s iodelay  Command
08:07:30 AM  1006    220707   85.00  113.00    0.00    0.00  198.00     3 150644.00      0.00 1074420  461012   0.17      0.00 333140.00      0.00       0  perf_experiment

# Time        UID       PID    %usr %system  %guest   %wait    %CPU   CPU  minflt/s  majflt/s     VSZ     RSS   %MEM   kB_rd/s   kB_wr/s kB_ccwr/s iodelay  Command
08:07:31 AM  1006    220707   97.00   85.00    0.00    0.00  182.00     3  76605.00      0.00 1079048  465464   0.18      0.00 296456.00      0.00       0  perf_experiment

# Time        UID       PID    %usr %system  %guest   %wait    %CPU   CPU  minflt/s  majflt/s     VSZ     RSS   %MEM   kB_rd/s   kB_wr/s kB_ccwr/s iodelay  Command
08:07:32 AM  1006    220707   89.00   47.00    0.00    0.00  136.00     3  53063.00      0.00 1114360  500852   0.19      0.00  61956.00      0.00       0  perf_experiment

# Time        UID       PID    %usr %system  %guest   %wait    %CPU   CPU  minflt/s  majflt/s     VSZ     RSS   %MEM   kB_rd/s   kB_wr/s kB_ccwr/s iodelay  Command
08:07:33 AM  1006    220707   98.00   41.00    0.00    0.00  139.00     3  17477.00      0.00 1114360  502932   0.19      0.00  64516.00      0.00       0  perf_experiment

# Time        UID       PID    %usr %system  %guest   %wait    %CPU   CPU  minflt/s  majflt/s     VSZ     RSS   %MEM   kB_rd/s   kB_wr/s kB_ccwr/s iodelay  Command
08:07:34 AM  1006    220707   97.00   60.00    0.00    0.00  157.00     3  37116.00      0.00 1114360  502896   0.19      0.00 145928.00      0.00       0  perf_experiment

# Time        UID       PID    %usr %system  %guest   %wait    %CPU   CPU  minflt/s  majflt/s     VSZ     RSS   %MEM   kB_rd/s   kB_wr/s kB_ccwr/s iodelay  Command
08:07:35 AM  1006    220707   95.00   79.00    0.00    0.00  174.00     3  51648.00      0.00 1114636  503132   0.19      0.00 202760.00      0.00       0  perf_experiment

# Time        UID       PID    %usr %system  %guest   %wait    %CPU   CPU  minflt/s  majflt/s     VSZ     RSS   %MEM   kB_rd/s   kB_wr/s kB_ccwr/s iodelay  Command
08:07:36 AM  1006    220707   92.00   81.00    0.00    0.00  173.00     3  51425.00      0.00 1115160  503548   0.19      0.00 203212.00      0.00       0  perf_experiment

# Time        UID       PID    %usr %system  %guest   %wait    %CPU   CPU  minflt/s  majflt/s     VSZ     RSS   %MEM   kB_rd/s   kB_wr/s kB_ccwr/s iodelay  Command
08:07:37 AM  1006    220707   97.00   76.00    0.00    0.00  173.00     3  49441.00      0.00 1117848  506468   0.19      0.00 194108.00      0.00       0  perf_experiment

# Time        UID       PID    %usr %system  %guest   %wait    %CPU   CPU  minflt/s  majflt/s     VSZ     RSS   %MEM   kB_rd/s   kB_wr/s kB_ccwr/s iodelay  Command
08:07:38 AM  1006    220707   95.00   69.00    0.00    0.00  164.00     3  40140.00      0.00 1116020  505216   0.19      0.00 158216.00      0.00       0  perf_experiment

# Time        UID       PID    %usr %system  %guest   %wait    %CPU   CPU  minflt/s  majflt/s     VSZ     RSS   %MEM   kB_rd/s   kB_wr/s kB_ccwr/s iodelay  Command
08:07:39 AM  1006    220707   89.00   44.00    0.00    0.00  133.00     3  14441.00      0.00 1115496  508508   0.19      0.00  53256.00      0.00       0  perf_experiment

# Time        UID       PID    %usr %system  %guest   %wait    %CPU   CPU  minflt/s  majflt/s     VSZ     RSS   %MEM   kB_rd/s   kB_wr/s kB_ccwr/s iodelay  Command
08:07:40 AM  1006    220707   93.00   43.00    0.00    0.00  136.00     3  13356.00      0.00 1116020  508768   0.19      0.00  52744.00      0.00       0  perf_experiment

# Time        UID       PID    %usr %system  %guest   %wait    %CPU   CPU  minflt/s  majflt/s     VSZ     RSS   %MEM   kB_rd/s   kB_wr/s kB_ccwr/s iodelay  Command
08:07:41 AM  1006    220707   86.00   47.00    0.00    0.00  133.00     3  13114.00      0.00 1115496  508724   0.19      0.00  51208.00      0.00       0  perf_experiment

# Time        UID       PID    %usr %system  %guest   %wait    %CPU   CPU  minflt/s  majflt/s     VSZ     RSS   %MEM   kB_rd/s   kB_wr/s kB_ccwr/s iodelay  Command
08:07:42 AM  1006    220707   86.00   46.00    0.00    0.00  132.00     3  12182.00      0.00 1116020  509208   0.19      0.00  47624.00      0.00       0  perf_experiment

# Time        UID       PID    %usr %system  %guest   %wait    %CPU   CPU  minflt/s  majflt/s     VSZ     RSS   %MEM   kB_rd/s   kB_wr/s kB_ccwr/s iodelay  Command
08:07:43 AM  1006    220707   92.00   41.00    0.00    0.00  133.00     3  11816.00      0.00 1115496  508368   0.19      0.00  47108.00      0.00       0  perf_experiment

# Time        UID       PID    %usr %system  %guest   %wait    %CPU   CPU  minflt/s  majflt/s     VSZ     RSS   %MEM   kB_rd/s   kB_wr/s kB_ccwr/s iodelay  Command
08:07:44 AM  1006    220707   88.00   46.00    0.00    0.00  134.00     3  27091.00      0.00 1116020  509220   0.19      0.00  46600.00      0.00       0  perf_experiment

# Time        UID       PID    %usr %system  %guest   %wait    %CPU   CPU  minflt/s  majflt/s     VSZ     RSS   %MEM   kB_rd/s   kB_wr/s kB_ccwr/s iodelay  Command
08:07:45 AM  1006    220707   90.00   43.00    0.00    0.00  133.00     3  58878.00      0.00 1116020  509396   0.19      0.00  44552.00      0.00       0  perf_experiment

# Time        UID       PID    %usr %system  %guest   %wait    %CPU   CPU  minflt/s  majflt/s     VSZ     RSS   %MEM   kB_rd/s   kB_wr/s kB_ccwr/s iodelay  Command
08:07:46 AM  1006    220707   84.00   49.00    0.00    0.00  133.00     3  38238.00      0.00 1115496  509556   0.19      0.00  46088.00      0.00       0  perf_experiment

# Time        UID       PID    %usr %system  %guest   %wait    %CPU   CPU  minflt/s  majflt/s     VSZ     RSS   %MEM   kB_rd/s   kB_wr/s kB_ccwr/s iodelay  Command
08:07:47 AM  1006    220707   88.00   44.00    0.00    0.00  132.00     3  12583.00      0.00 1116020  509808   0.19      0.00  47112.00      0.00       0  perf_experiment

# Time        UID       PID    %usr %system  %guest   %wait    %CPU   CPU  minflt/s  majflt/s     VSZ     RSS   %MEM   kB_rd/s   kB_wr/s kB_ccwr/s iodelay  Command
08:07:48 AM  1006    220707   87.00   45.00    0.00    0.00  132.00     3  12591.00      0.00 1115496  510028   0.19      0.00  47112.00      0.00       0  perf_experiment

# Time        UID       PID    %usr %system  %guest   %wait    %CPU   CPU  minflt/s  majflt/s     VSZ     RSS   %MEM   kB_rd/s   kB_wr/s kB_ccwr/s iodelay  Command
08:07:49 AM  1006    220707   84.00   53.00    0.00    0.00  137.00     3  15511.00      0.00 1115496  510528   0.19      0.00  57348.00      0.00       0  perf_experiment

# Time        UID       PID    %usr %system  %guest   %wait    %CPU   CPU  minflt/s  majflt/s     VSZ     RSS   %MEM   kB_rd/s   kB_wr/s kB_ccwr/s iodelay  Command
08:07:50 AM  1006    220707   90.00   41.00    0.00    0.00  131.00     3  11250.00      0.00 1116020  510752   0.19      0.00  45576.00      0.00       0  perf_experiment

# Time        UID       PID    %usr %system  %guest   %wait    %CPU   CPU  minflt/s  majflt/s     VSZ     RSS   %MEM   kB_rd/s   kB_wr/s kB_ccwr/s iodelay  Command
08:07:51 AM  1006    220707   88.00   42.00    0.00    0.00  130.00     3  11384.00      0.00 1116020  511140   0.19      0.00  45064.00      0.00       0  perf_experiment

# Time        UID       PID    %usr %system  %guest   %wait    %CPU   CPU  minflt/s  majflt/s     VSZ     RSS   %MEM   kB_rd/s   kB_wr/s kB_ccwr/s iodelay  Command
08:07:52 AM  1006    220707   95.00   51.00    0.00    0.00  146.00     3  22620.00      0.00 1115496  511844   0.19      0.00  88584.00      0.00       0  perf_experiment

# Time        UID       PID    %usr %system  %guest   %wait    %CPU   CPU  minflt/s  majflt/s     VSZ     RSS   %MEM   kB_rd/s   kB_wr/s kB_ccwr/s iodelay  Command
08:07:53 AM  1006    220707   96.00   67.00    0.00    0.00  163.00     4  43690.00      0.00 1116544  512672   0.19      0.00 167944.00      0.00       0  perf_experiment

# Time        UID       PID    %usr %system  %guest   %wait    %CPU   CPU  minflt/s  majflt/s     VSZ     RSS   %MEM   kB_rd/s   kB_wr/s kB_ccwr/s iodelay  Command
08:07:54 AM  1006    220707   90.00   73.00    0.00    0.00  163.00     4  48124.00      0.00 1115496  511632   0.19      0.00 189444.00      0.00       0  perf_experiment

# Time        UID       PID    %usr %system  %guest   %wait    %CPU   CPU  minflt/s  majflt/s     VSZ     RSS   %MEM   kB_rd/s   kB_wr/s kB_ccwr/s iodelay  Command
08:07:55 AM  1006    220707   93.00   72.00    0.00    0.00  165.00     4  44867.00      0.00 1116020  512584   0.19      0.00 176136.00      0.00       0  perf_experiment

# Time        UID       PID    %usr %system  %guest   %wait    %CPU   CPU  minflt/s  majflt/s     VSZ     RSS   %MEM   kB_rd/s   kB_wr/s kB_ccwr/s iodelay  Command
08:07:56 AM  1006    220707   90.00   74.00    0.00    0.00  164.00     4 107184.00      0.00 1117592  513840   0.19      0.00 169476.00      0.00       0  perf_experiment

# Time        UID       PID    %usr %system  %guest   %wait    %CPU   CPU  minflt/s  majflt/s     VSZ     RSS   %MEM   kB_rd/s   kB_wr/s kB_ccwr/s iodelay  Command
08:07:57 AM  1006    220707   92.00   75.00    0.00    0.00  167.00     4  46344.00      0.00 1115496  511952   0.19      0.00 184328.00      0.00       0  perf_experiment

# Time        UID       PID    %usr %system  %guest   %wait    %CPU   CPU  minflt/s  majflt/s     VSZ     RSS   %MEM   kB_rd/s   kB_wr/s kB_ccwr/s iodelay  Command
08:07:58 AM  1006    220707   96.00   73.00    0.00    0.00  169.00     4  50682.00      0.00 1116544  512836   0.19      0.00 201736.00      0.00       0  perf_experiment

# Time        UID       PID    %usr %system  %guest   %wait    %CPU   CPU  minflt/s  majflt/s     VSZ     RSS   %MEM   kB_rd/s   kB_wr/s kB_ccwr/s iodelay  Command
08:07:59 AM  1006    220707   99.00   86.00    0.00    0.00  185.00     4  89988.00      0.00 1116544  512940   0.19      0.00 245252.00      0.00       0  perf_experiment

# Time        UID       PID    %usr %system  %guest   %wait    %CPU   CPU  minflt/s  majflt/s     VSZ     RSS   %MEM   kB_rd/s   kB_wr/s kB_ccwr/s iodelay  Command
08:08:00 AM  1006    220707   91.00   95.00    0.00    0.00  186.00     4  66140.00      0.00 1117068  510808   0.19      0.00 251912.00      0.00       0  perf_experiment

# Time        UID       PID    %usr %system  %guest   %wait    %CPU   CPU  minflt/s  majflt/s     VSZ     RSS   %MEM   kB_rd/s   kB_wr/s kB_ccwr/s iodelay  Command
08:08:01 AM  1006    220707   94.00   98.00    0.00    0.00  192.00     4  64197.00      0.00 1116544  510064   0.19      0.00 252424.00      0.00       0  perf_experiment

# Time        UID       PID    %usr %system  %guest   %wait    %CPU   CPU  minflt/s  majflt/s     VSZ     RSS   %MEM   kB_rd/s   kB_wr/s kB_ccwr/s iodelay  Command
08:08:02 AM  1006    220707   98.00   97.00    0.00    0.00  195.00     4  58321.00      0.00 1117068  510472   0.19      0.00 242900.00      0.00       0  perf_experiment

# Time        UID       PID    %usr %system  %guest   %wait    %CPU   CPU  minflt/s  majflt/s     VSZ     RSS   %MEM   kB_rd/s   kB_wr/s kB_ccwr/s iodelay  Command
08:08:03 AM  1006    220707  101.00   93.00    0.00    0.00  194.00     4  48618.00      0.00 1117364  509812   0.19      0.00 241468.00      0.00       0  perf_experiment

# Time        UID       PID    %usr %system  %guest   %wait    %CPU   CPU  minflt/s  majflt/s     VSZ     RSS   %MEM   kB_rd/s   kB_wr/s kB_ccwr/s iodelay  Command
08:08:04 AM  1006    220707  106.00   92.00    0.00    0.00  198.00     4  45310.00      0.00 1117888  510656   0.19      0.00 235232.00      0.00       0  perf_experiment

# Time        UID       PID    %usr %system  %guest   %wait    %CPU   CPU  minflt/s  majflt/s     VSZ     RSS   %MEM   kB_rd/s   kB_wr/s kB_ccwr/s iodelay  Command
08:08:05 AM  1006    220707  104.00   86.00    0.00    0.00  190.00     4  57169.00      0.00 1117888  510372   0.19      0.00 248096.00      0.00       0  perf_experiment

# Time        UID       PID    %usr %system  %guest   %wait    %CPU   CPU  minflt/s  majflt/s     VSZ     RSS   %MEM   kB_rd/s   kB_wr/s kB_ccwr/s iodelay  Command
08:08:06 AM  1006    220707   98.00  101.00    0.00    0.00  199.00     4  77598.00      0.00 1117888  510524   0.19      0.00 315912.00      0.00       0  perf_experiment

# Time        UID       PID    %usr %system  %guest   %wait    %CPU   CPU  minflt/s  majflt/s     VSZ     RSS   %MEM   kB_rd/s   kB_wr/s kB_ccwr/s iodelay  Command
08:08:07 AM  1006    220707  109.00   95.00    0.00    0.00  204.00     4  62760.00      0.00 1117364  510020   0.19      0.00 339296.00      0.00       0  perf_experiment

# Time        UID       PID    %usr %system  %guest   %wait    %CPU   CPU  minflt/s  majflt/s     VSZ     RSS   %MEM   kB_rd/s   kB_wr/s kB_ccwr/s iodelay  Command
08:08:08 AM  1006    220707  100.00  103.00    0.00    0.00  203.00     4  70267.00      0.00 1118936  511356   0.19      0.00 323240.00      0.00       0  perf_experiment

# Time        UID       PID    %usr %system  %guest   %wait    %CPU   CPU  minflt/s  majflt/s     VSZ     RSS   %MEM   kB_rd/s   kB_wr/s kB_ccwr/s iodelay  Command
08:08:09 AM  1006    220707  104.00   98.00    0.00    0.00  202.00     4  75575.00      0.00 1117364  509832   0.19      0.00 311304.00      0.00       0  perf_experiment

# Time        UID       PID    %usr %system  %guest   %wait    %CPU   CPU  minflt/s  majflt/s     VSZ     RSS   %MEM   kB_rd/s   kB_wr/s kB_ccwr/s iodelay  Command
08:08:10 AM  1006    220707  109.00   90.00    0.00    0.00  199.00     4  71929.00      0.00 1117888  510460   0.19      0.00 310280.00      0.00       0  perf_experiment

# Time        UID       PID    %usr %system  %guest   %wait    %CPU   CPU  minflt/s  majflt/s     VSZ     RSS   %MEM   kB_rd/s   kB_wr/s kB_ccwr/s iodelay  Command
08:08:11 AM  1006    220707   99.00  100.00    0.00    0.00  199.00     4  71995.00      0.00 1118412  511084   0.19      0.00 341512.00      0.00       0  perf_experiment

# Time        UID       PID    %usr %system  %guest   %wait    %CPU   CPU  minflt/s  majflt/s     VSZ     RSS   %MEM   kB_rd/s   kB_wr/s kB_ccwr/s iodelay  Command
08:08:12 AM  1006    220707  105.00   95.00    0.00    0.00  200.00     4  77564.00      0.00 1118412  511120   0.19      0.00 329224.00      0.00       0  perf_experiment

# Time        UID       PID    %usr %system  %guest   %wait    %CPU   CPU  minflt/s  majflt/s     VSZ     RSS   %MEM   kB_rd/s   kB_wr/s kB_ccwr/s iodelay  Command
08:08:13 AM  1006    220707  109.00   93.00    0.00    0.00  202.00     4  68708.00      0.00 1118412  511200   0.19      0.00 325640.00      0.00       0  perf_experiment

# Time        UID       PID    %usr %system  %guest   %wait    %CPU   CPU  minflt/s  majflt/s     VSZ     RSS   %MEM   kB_rd/s   kB_wr/s kB_ccwr/s iodelay  Command
08:08:14 AM  1006    220707   97.00   46.00    0.00    0.00  143.00     4  89609.00      0.00 1132916  525296   0.20      0.00  93056.00      0.00       0  perf_experiment

# Time        UID       PID    %usr %system  %guest   %wait    %CPU   CPU  minflt/s  majflt/s     VSZ     RSS   %MEM   kB_rd/s   kB_wr/s kB_ccwr/s iodelay  Command
08:08:15 AM  1006    220707   90.00   45.00    0.00    0.00  135.00     4  14231.00      0.00 1134736  527428   0.20      0.00  54416.00      0.00       0  perf_experiment

# Time        UID       PID    %usr %system  %guest   %wait    %CPU   CPU  minflt/s  majflt/s     VSZ     RSS   %MEM   kB_rd/s   kB_wr/s kB_ccwr/s iodelay  Command
08:08:16 AM  1006    220707   97.00   38.00    0.00    0.00  135.00     4  13904.00      0.00 1134212  526976   0.20      0.00  54792.00      0.00       0  perf_experiment

# Time        UID       PID    %usr %system  %guest   %wait    %CPU   CPU  minflt/s  majflt/s     VSZ     RSS   %MEM   kB_rd/s   kB_wr/s kB_ccwr/s iodelay  Command
08:08:17 AM  1006    220707  100.00   76.00    0.00    0.00  176.00     4  50741.00      0.00 1138332  531016   0.20      0.00 197640.00      0.00       0  perf_experiment

# Time        UID       PID    %usr %system  %guest   %wait    %CPU   CPU  minflt/s  majflt/s     VSZ     RSS   %MEM   kB_rd/s   kB_wr/s kB_ccwr/s iodelay  Command
08:08:18 AM  1006    220707  100.00   83.00    0.00    0.00  183.00     4  58212.00      0.00 1137572  530112   0.20      0.00 246280.00      0.00       0  perf_experiment

# Time        UID       PID    %usr %system  %guest   %wait    %CPU   CPU  minflt/s  majflt/s     VSZ     RSS   %MEM   kB_rd/s   kB_wr/s kB_ccwr/s iodelay  Command
08:08:19 AM  1006    220707   96.00   92.00    0.00    0.00  188.00     8  75711.00      0.00 1138620  531716   0.20      0.00 243720.00      0.00       0  perf_experiment

# Time        UID       PID    %usr %system  %guest   %wait    %CPU   CPU  minflt/s  majflt/s     VSZ     RSS   %MEM   kB_rd/s   kB_wr/s kB_ccwr/s iodelay  Command
08:08:20 AM  1006    220707  101.00   78.00    0.00    0.00  179.00     8  46557.00      0.00 1138096  531316   0.20      0.00 244744.00      0.00       0  perf_experiment

# Time        UID       PID    %usr %system  %guest   %wait    %CPU   CPU  minflt/s  majflt/s     VSZ     RSS   %MEM   kB_rd/s   kB_wr/s kB_ccwr/s iodelay  Command
08:08:21 AM  1006    220707  101.00   79.00    0.00    0.00  180.00     8  45615.00      0.00 1138620  531440   0.20      0.00 249796.00      0.00       0  perf_experiment

# Time        UID       PID    %usr %system  %guest   %wait    %CPU   CPU  minflt/s  majflt/s     VSZ     RSS   %MEM   kB_rd/s   kB_wr/s kB_ccwr/s iodelay  Command
08:08:22 AM  1006    220707  101.00   80.00    0.00    0.00  181.00     8  41597.00      0.00 1138620  531484   0.20      0.00 255052.00      0.00       0  perf_experiment

# Time        UID       PID    %usr %system  %guest   %wait    %CPU   CPU  minflt/s  majflt/s     VSZ     RSS   %MEM   kB_rd/s   kB_wr/s kB_ccwr/s iodelay  Command
08:08:23 AM  1006    220707   98.00   52.00    0.00    0.00  150.00     8  19061.00      0.00 1137048  530384   0.20      0.00 117768.00      0.00       0  perf_experiment

# Time        UID       PID    %usr %system  %guest   %wait    %CPU   CPU  minflt/s  majflt/s     VSZ     RSS   %MEM   kB_rd/s   kB_wr/s kB_ccwr/s iodelay  Command
08:08:24 AM  1006    220707   88.00   45.00    0.00    0.00  133.00     8    289.00      0.00 1137048  530328   0.20      0.00  53768.00      0.00       0  perf_experiment

# Time        UID       PID    %usr %system  %guest   %wait    %CPU   CPU  minflt/s  majflt/s     VSZ     RSS   %MEM   kB_rd/s   kB_wr/s kB_ccwr/s iodelay  Command
08:08:25 AM  1006    220707   88.00   41.00    0.00    0.00  129.00     8    136.00      0.00 1137048  530420   0.20      0.00  52744.00      0.00       0  perf_experiment

# Time        UID       PID    %usr %system  %guest   %wait    %CPU   CPU  minflt/s  majflt/s     VSZ     RSS   %MEM   kB_rd/s   kB_wr/s kB_ccwr/s iodelay  Command
08:08:26 AM  1006    220707   94.00   38.00    0.00    0.00  132.00     8      4.00      0.00 1137048  530420   0.20      0.00  49160.00      0.00       0  perf_experiment

# Time        UID       PID    %usr %system  %guest   %wait    %CPU   CPU  minflt/s  majflt/s     VSZ     RSS   %MEM   kB_rd/s   kB_wr/s kB_ccwr/s iodelay  Command
08:08:27 AM  1006    220707   88.00   40.00    0.00    0.00  128.00     8  59544.00      0.00 1137048  530472   0.20      0.00  45064.00      0.00       0  perf_experiment

# Time        UID       PID    %usr %system  %guest   %wait    %CPU   CPU  minflt/s  majflt/s     VSZ     RSS   %MEM   kB_rd/s   kB_wr/s kB_ccwr/s iodelay  Command
08:08:28 AM  1006    220707   90.00   39.00    0.00    0.00  129.00     8   2064.00      0.00 1137048  530488   0.20      0.00  48648.00      0.00       0  perf_experiment

# Time        UID       PID    %usr %system  %guest   %wait    %CPU   CPU  minflt/s  majflt/s     VSZ     RSS   %MEM   kB_rd/s   kB_wr/s kB_ccwr/s iodelay  Command
08:08:29 AM  1006    220707   86.00   44.00    0.00    0.00  130.00     8    215.00      0.00 1137048  530500   0.20      0.00  48644.00      0.00       0  perf_experiment

# Time        UID       PID    %usr %system  %guest   %wait    %CPU   CPU  minflt/s  majflt/s     VSZ     RSS   %MEM   kB_rd/s   kB_wr/s kB_ccwr/s iodelay  Command
08:08:30 AM  1006    220707   85.00   44.00    0.00    0.00  129.00     8   6404.00      0.00 1137572  530604   0.20      0.00  45572.00      0.00       0  perf_experiment

# Time        UID       PID    %usr %system  %guest   %wait    %CPU   CPU  minflt/s  majflt/s     VSZ     RSS   %MEM   kB_rd/s   kB_wr/s kB_ccwr/s iodelay  Command
08:08:31 AM  1006    220707   93.00   37.00    0.00    0.00  130.00     9   5365.00      0.00 1137572  530580   0.20      0.00  44552.00      0.00       0  perf_experiment

# Time        UID       PID    %usr %system  %guest   %wait    %CPU   CPU  minflt/s  majflt/s     VSZ     RSS   %MEM   kB_rd/s   kB_wr/s kB_ccwr/s iodelay  Command
08:08:32 AM  1006    220707   89.00   43.00    0.00    0.00  132.00     9   5048.00      0.00 1137572  530672   0.20      0.00  45064.00      0.00       0  perf_experiment

# Time        UID       PID    %usr %system  %guest   %wait    %CPU   CPU  minflt/s  majflt/s     VSZ     RSS   %MEM   kB_rd/s   kB_wr/s kB_ccwr/s iodelay  Command
08:08:33 AM  1006    220707   90.00   45.00    0.00    0.00  135.00     9   7030.00      0.00 1137572  530612   0.20      0.00  56840.00      0.00       0  perf_experiment

# Time        UID       PID    %usr %system  %guest   %wait    %CPU   CPU  minflt/s  majflt/s     VSZ     RSS   %MEM   kB_rd/s   kB_wr/s kB_ccwr/s iodelay  Command
08:08:34 AM  1006    220707   88.00   42.00    0.00    0.00  130.00     9   1881.00      0.00 1137572  530624   0.20      0.00  41992.00      0.00       0  perf_experiment

# Time        UID       PID    %usr %system  %guest   %wait    %CPU   CPU  minflt/s  majflt/s     VSZ     RSS   %MEM   kB_rd/s   kB_wr/s kB_ccwr/s iodelay  Command
08:08:35 AM  1006    220707   88.00   42.00    0.00    0.00  130.00     9   5178.00      0.00 1137572  530808   0.20      0.00  41992.00      0.00       0  perf_experiment

# Time        UID       PID    %usr %system  %guest   %wait    %CPU   CPU  minflt/s  majflt/s     VSZ     RSS   %MEM   kB_rd/s   kB_wr/s kB_ccwr/s iodelay  Command
08:08:36 AM  1006    220707   91.00   38.00    0.00    0.00  129.00     9   4997.00      0.00 1137048  530600   0.20      0.00  42504.00      0.00       0  perf_experiment

# Time        UID       PID    %usr %system  %guest   %wait    %CPU   CPU  minflt/s  majflt/s     VSZ     RSS   %MEM   kB_rd/s   kB_wr/s kB_ccwr/s iodelay  Command