5,Faster,10,5000000,2500000,128,512,58960,5000000


resource usage stats

Linux 5.4.0-42-generic (arcon1) 	10/25/2020 	_x86_64_	(64 CPU)

# Time        UID       PID    %usr %system  %guest   %wait    %CPU   CPU  minflt/s  majflt/s     VSZ     RSS   %MEM   kB_rd/s   kB_wr/s kB_ccwr/s iodelay  Command
12:40:03 PM  1006    221656   75.00   25.00    0.00    0.00  100.00    20 144887.00      0.00  659628  584656   0.22      0.00      4.00      0.00       0  perf_experiment

# Time        UID       PID    %usr %system  %guest   %wait    %CPU   CPU  minflt/s  majflt/s     VSZ     RSS   %MEM   kB_rd/s   kB_wr/s kB_ccwr/s iodelay  Command
12:40:04 PM  1006    221656   78.00    8.00    0.00    0.00   86.00    20  36696.00      0.00  661476  586708   0.22      0.00 196608.00      0.00      11  perf_experiment

# Time        UID       PID    %usr %system  %guest   %wait    %CPU   CPU  minflt/s  majflt/s     VSZ     RSS   %MEM   kB_rd/s   kB_wr/s kB_ccwr/s iodelay  Command
12:40:05 PM  1006    221656   79.00    7.00    0.00    0.00   86.00    20  70226.00      0.00  663192  588412   0.22      0.00 229376.00      0.00      15  perf_experiment

# Time        UID       PID    %usr %system  %guest   %wait    %CPU   CPU  minflt/s  majflt/s     VSZ     RSS   %MEM   kB_rd/s   kB_wr/s kB_ccwr/s iodelay  Command
12:40:06 PM  1006    221656   81.00    4.00    0.00    0.00   85.00    20  61893.00      0.00  664776  590040   0.22      0.00 196608.00      0.00      15  perf_experiment

# Time        UID       PID    %usr %system  %guest   %wait    %CPU   CPU  minflt/s  majflt/s     VSZ     RSS   %MEM   kB_rd/s   kB_wr/s kB_ccwr/s iodelay  Command
12:40:07 PM  1006    221656   79.00    6.00    0.00    0.00   85.00    20  66697.00      0.00  666360  591568   0.22      0.00 229376.00      0.00      16  perf_experiment

# Time        UID       PID    %usr %system  %guest   %wait    %CPU   CPU  minflt/s  majflt/s     VSZ     RSS   %MEM   kB_rd/s   kB_wr/s kB_ccwr/s iodelay  Command
12:40:08 PM  1006    221656   81.00    5.00    0.00    0.00   86.00    20  53947.00      0.00  668076  593224   0.22      0.00 196608.00      0.00      13  perf_experiment

# Time        UID       PID    %usr %system  %guest   %wait    %CPU   CPU  minflt/s  majflt/s     VSZ     RSS   %MEM   kB_rd/s   kB_wr/s kB_ccwr/s iodelay  Command
12:40:09 PM  1006    221656   80.00    5.00    0.00    0.00   85.00    20  58453.00      0.00  669528  594752   0.23      0.00 229376.00      0.00      16  perf_experiment

# Time        UID       PID    %usr %system  %guest   %wait    %CPU   CPU  minflt/s  majflt/s     VSZ     RSS   %MEM   kB_rd/s   kB_wr/s kB_ccwr/s iodelay  Command
12:40:10 PM  1006    221656   39.00   61.00    0.00    0.00  100.00    20    104.00      0.00  669660  594936   0.23  15005.50      0.00      0.00       0  perf_experiment

# Time        UID       PID    %usr %system  %guest   %wait    %CPU   CPU  minflt/s  majflt/s     VSZ     RSS   %MEM   kB_rd/s   kB_wr/s kB_ccwr/s iodelay  Command
12:40:11 PM  1006    221656   40.00   60.00    0.00    0.00  100.00    20    570.00      0.00  669660  595036   0.23  15295.00      0.00      0.00       0  perf_experiment

# Time        UID       PID    %usr %system  %guest   %wait    %CPU   CPU  minflt/s  majflt/s     VSZ     RSS   %MEM   kB_rd/s   kB_wr/s kB_ccwr/s iodelay  Command
12:40:12 PM  1006    221656   39.00   61.00    0.00    0.00  100.00    20   1235.00      0.00  669784  595080   0.23  15071.00      0.00      0.00       0  perf_experiment

# Time        UID       PID    %usr %system  %guest   %wait    %CPU   CPU  minflt/s  majflt/s     VSZ     RSS   %MEM   kB_rd/s   kB_wr/s kB_ccwr/s iodelay  Command
12:40:13 PM  1006    221656   33.00   67.00    0.00    0.00  100.00    20   1369.00      0.00  669784  595140   0.23  15274.50      0.00      0.00       0  perf_experiment

# Time        UID       PID    %usr %system  %guest   %wait    %CPU   CPU  minflt/s  majflt/s     VSZ     RSS   %MEM   kB_rd/s   kB_wr/s kB_ccwr/s iodelay  Command
12:40:14 PM  1006    221656   40.00   58.00    0.00    0.00   98.00    20  10093.00      0.00  669784  595140   0.23  14817.50  32768.00      0.00       2  perf_experiment

# Time        UID       PID    %usr %system  %guest   %wait    %CPU   CPU  minflt/s  majflt/s     VSZ     RSS   %MEM   kB_rd/s   kB_wr/s kB_ccwr/s iodelay  Command
12:40:15 PM  1006    221656   39.00   60.00    0.00    0.00   99.00    20   1386.00      0.00  669908  595200   0.23  15464.50      0.00      0.00       0  perf_experiment

# Time        UID       PID    %usr %system  %guest   %wait    %CPU   CPU  minflt/s  majflt/s     VSZ     RSS   %MEM   kB_rd/s   kB_wr/s kB_ccwr/s iodelay  Command
12:40:16 PM  1006    221656   38.00   63.00    0.00    0.00  101.00    20   1346.00      0.00  669908  595240   0.23  15051.00      0.00      0.00       0  perf_experiment

# Time        UID       PID    %usr %system  %guest   %wait    %CPU   CPU  minflt/s  majflt/s     VSZ     RSS   %MEM   kB_rd/s   kB_wr/s kB_ccwr/s iodelay  Command
12:40:17 PM  1006    221656   37.00   62.00    0.00    0.00   99.00    20   1358.00      0.00  669908  595268   0.23  15388.00      0.00      0.00       0  perf_experiment

# Time        UID       PID    %usr %system  %guest   %wait    %CPU   CPU  minflt/s  majflt/s     VSZ     RSS   %MEM   kB_rd/s   kB_wr/s kB_ccwr/s iodelay  Command
12:40:18 PM  1006    221656   36.00   65.00    0.00    0.00  101.00    20   2021.00      0.00  670028  595332   0.23  15503.00      0.00      0.00       0  perf_experiment

# Time        UID       PID    %usr %system  %guest   %wait    %CPU   CPU  minflt/s  majflt/s     VSZ     RSS   %MEM   kB_rd/s   kB_wr/s kB_ccwr/s iodelay  Command
12:40:19 PM  1006    221656   40.00   60.00    0.00    0.00  100.00    20   1342.00      0.00  670028  595364   0.23  15207.50      0.00      0.00       0  perf_experiment

# Time        UID       PID    %usr %system  %guest   %wait    %CPU   CPU  minflt/s  majflt/s     VSZ     RSS   %MEM   kB_rd/s   kB_wr/s kB_ccwr/s iodelay  Command
12:40:20 PM  1006    221656   36.00   61.00    0.00    0.00   97.00    20   9497.00      0.00  670028  595404   0.23  14598.50  32768.00      0.00       2  perf_experiment

# Time        UID       PID    %usr %system  %guest   %wait    %CPU   CPU  minflt/s  majflt/s     VSZ     RSS   %MEM   kB_rd/s   kB_wr/s kB_ccwr/s iodelay  Command
12:40:21 PM  1006    221656   39.00   61.00    0.00    0.00  100.00    20   1380.00      0.00  670136  595480   0.23  15346.00      0.00      0.00       0  perf_experiment

# Time        UID       PID    %usr %system  %guest   %wait    %CPU   CPU  minflt/s  majflt/s     VSZ     RSS   %MEM   kB_rd/s   kB_wr/s kB_ccwr/s iodelay  Command
12:40:22 PM  1006    221656   42.00   58.00    0.00    0.00  100.00    20   1337.00      0.00  670136  595496   0.23  15184.50      0.00      0.00       0  perf_experiment

# Time        UID       PID    %usr %system  %guest   %wait    %CPU   CPU  minflt/s  majflt/s     VSZ     RSS   %MEM   kB_rd/s   kB_wr/s kB_ccwr/s iodelay  Command
12:40:23 PM  1006    221656   40.00   61.00    0.00    0.00  101.00    20   2043.00      0.00  670228  595556   0.23  15208.50      0.00      0.00       0  perf_experiment

# Time        UID       PID    %usr %system  %guest   %wait    %CPU   CPU  minflt/s  majflt/s     VSZ     RSS   %MEM   kB_rd/s   kB_wr/s kB_ccwr/s iodelay  Command
12:40:24 PM  1006    221656   36.00   64.00    0.00    0.00  100.00    20   1370.00      0.00  670228  595600   0.23  15370.00      0.00      0.00       0  perf_experiment

# Time        UID       PID    %usr %system  %guest   %wait    %CPU   CPU  minflt/s  majflt/s     VSZ     RSS   %MEM   kB_rd/s   kB_wr/s kB_ccwr/s iodelay  Command
12:40:25 PM  1006    221656   39.00   60.00    0.00    0.00   99.00    20   1358.00      0.00  670328  595632   0.23  15373.50      0.00      0.00       0  perf_experiment

# Time        UID       PID    %usr %system  %guest   %wait    %CPU   CPU  minflt/s  majflt/s     VSZ     RSS   %MEM   kB_rd/s   kB_wr/s kB_ccwr/s iodelay  Command
12:40:26 PM  1006    221656   38.00   60.00    0.00    0.00   98.00    20   9534.00      0.00  670328  595684   0.23  14907.50  32768.00      0.00       2  perf_experiment

# Time        UID       PID    %usr %system  %guest   %wait    %CPU   CPU  minflt/s  majflt/s     VSZ     RSS   %MEM   kB_rd/s   kB_wr/s kB_ccwr/s iodelay  Command
12:40:27 PM  1006    221656   25.00   75.00    0.00    0.00  100.00    20   1310.00      0.00  670420  595720   0.23  14728.50      0.00      0.00       0  perf_experiment

# Time        UID       PID    %usr %system  %guest   %wait    %CPU   CPU  minflt/s  majflt/s     VSZ     RSS   %MEM   kB_rd/s   kB_wr/s kB_ccwr/s iodelay  Command
12:40:28 PM  1006    221656   40.00   60.00    0.00    0.00  100.00    20   1396.00      0.00  670420  595760   0.23  15609.50      0.00      0.00       0  perf_experiment

# Time        UID       PID    %usr %system  %guest   %wait    %CPU   CPU  minflt/s  majflt/s     VSZ     RSS   %MEM   kB_rd/s   kB_wr/s kB_ccwr/s iodelay  Command
12:40:29 PM  1006    221656   38.00   62.00    0.00    0.00  100.00    20   1354.00      0.00  670420  595780   0.23  15380.00      0.00      0.00       0  perf_experiment

# Time        UID       PID    %usr %system  %guest   %wait    %CPU   CPU  minflt/s  majflt/s     VSZ     RSS   %MEM   kB_rd/s   kB_wr/s kB_ccwr/s iodelay  Command
12:40:30 PM  1006    221656   39.00   61.00    0.00    0.00  100.00    20   2069.00      0.00  670544  595856   0.23  15022.00      0.00      0.00       0  perf_experiment

# Time        UID       PID    %usr %system  %guest   %wait    %CPU   CPU  minflt/s  majflt/s     VSZ     RSS   %MEM   kB_rd/s   kB_wr/s kB_ccwr/s iodelay  Command
12:40:31 PM  1006    221656   39.00   61.00    0.00    0.00  100.00    20   1464.00      0.00  670544  595892   0.23  15229.50      0.00      0.00       0  perf_experiment

# Time        UID       PID    %usr %system  %guest   %wait    %CPU   CPU  minflt/s  majflt/s     VSZ     RSS   %MEM   kB_rd/s   kB_wr/s kB_ccwr/s iodelay  Command
12:40:32 PM  1006    221656   39.00   59.00    0.00    0.00   98.00    20   9557.00      0.00  670660  595928   0.23  14854.50  32768.00      0.00       3  perf_experiment

# Time        UID       PID    %usr %system  %guest   %wait    %CPU   CPU  minflt/s  majflt/s     VSZ     RSS   %MEM   kB_rd/s   kB_wr/s kB_ccwr/s iodelay  Command
12:40:33 PM  1006    221656   37.00   63.00    0.00    0.00  100.00    20   1394.00      0.00  670636  595976   0.23  15326.00      0.00      0.00       0  perf_experiment

# Time        UID       PID    %usr %system  %guest   %wait    %CPU   CPU  minflt/s  majflt/s     VSZ     RSS   %MEM   kB_rd/s   kB_wr/s kB_ccwr/s iodelay  Command
12:40:34 PM  1006    221656   41.00   59.00    0.00    0.00  100.00    20   1387.00      0.00  670636  596012   0.23  15226.50      0.00      0.00       0  perf_experiment

# Time        UID       PID    %usr %system  %guest   %wait    %CPU   CPU  minflt/s  majflt/s     VSZ     RSS   %MEM   kB_rd/s   kB_wr/s kB_ccwr/s iodelay  Command
12:40:35 PM  1006    221656   42.00   58.00    0.00    0.00  100.00    20   1397.00      0.00  670728  596064   0.23  15323.00      0.00      0.00       0  perf_experiment

# Time        UID       PID    %usr %system  %guest   %wait    %CPU   CPU  minflt/s  majflt/s     VSZ     RSS   %MEM   kB_rd/s   kB_wr/s kB_ccwr/s iodelay  Command
12:40:36 PM  1006    221656   43.00   57.00    0.00    0.00  100.00    20   1401.00      0.00  670728  596104   0.23  15504.50      0.00      0.00       0  perf_experiment

# Time        UID       PID    %usr %system  %guest   %wait    %CPU   CPU  minflt/s  majflt/s     VSZ     RSS   %MEM   kB_rd/s   kB_wr/s kB_ccwr/s iodelay  Command
12:40:37 PM  1006    221656   38.00   62.00    0.00    0.00  100.00    20   1350.00      0.00  670856  596140   0.23  15242.00      0.00      0.00       0  perf_experiment

# Time        UID       PID    %usr %system  %guest   %wait    %CPU   CPU  minflt/s  majflt/s     VSZ     RSS   %MEM   kB_rd/s   kB_wr/s kB_ccwr/s iodelay  Command
12:40:38 PM  1006    221656   36.00   63.00    0.00    0.00   99.00    20   9558.00      0.00  670856  596180   0.23  14972.00  32768.00      0.00       0  perf_experiment

# Time        UID       PID    %usr %system  %guest   %wait    %CPU   CPU  minflt/s  majflt/s     VSZ     RSS   %MEM   kB_rd/s   kB_wr/s kB_ccwr/s iodelay  Command
12:40:39 PM  1006    221656   39.00   60.00    0.00    0.00   99.00    20     13.00      0.00  670856  596180   0.23  15121.50      0.00      0.00       2  perf_experiment

# Time        UID       PID    %usr %system  %guest   %wait    %CPU   CPU  minflt/s  majflt/s     VSZ     RSS   %MEM   kB_rd/s   kB_wr/s kB_ccwr/s iodelay  Command
12:40:40 PM  1006    221656   37.00   63.00    0.00    0.00  100.00    20   2348.00      0.00  670960  596272   0.23  15257.00      0.00      0.00       0  perf_experiment

# Time        UID       PID    %usr %system  %guest   %wait    %CPU   CPU  minflt/s  majflt/s     VSZ     RSS   %MEM   kB_rd/s   kB_wr/s kB_ccwr/s iodelay  Command
12:40:41 PM  1006    221656   36.00   64.00    0.00    0.00  100.00    20   1433.00      0.00  670960  596300   0.23  14993.50      0.00      0.00       0  perf_experiment

# Time        UID       PID    %usr %system  %guest   %wait    %CPU   CPU  minflt/s  majflt/s     VSZ     RSS   %MEM   kB_rd/s   kB_wr/s kB_ccwr/s iodelay  Command
12:40:42 PM  1006    221656   34.00   66.00    0.00    0.00  100.00    20   1381.00      0.00  670960  596340   0.23  15347.00      0.00      0.00       0  perf_experiment

# Time        UID       PID    %usr %system  %guest   %wait    %CPU   CPU  minflt/s  majflt/s     VSZ     RSS   %MEM   kB_rd/s   kB_wr/s kB_ccwr/s iodelay  Command
12:40:43 PM  1006    221656   33.00   67.00    0.00    0.00  100.00    20   1420.00      0.00  671088  596428   0.23  15346.00      0.00      0.00       0  perf_experiment

# Time        UID       PID    %usr %system  %guest   %wait    %CPU   CPU  minflt/s  majflt/s     VSZ     RSS   %MEM   kB_rd/s   kB_wr/s kB_ccwr/s iodelay  Command
12:40:44 PM  1006    221656   41.00   59.00    0.00    0.00  100.00    20   1396.00      0.00  671088  596448   0.23  15378.50      0.00      0.00       0  perf_experiment

# Time        UID       PID    %usr %system  %guest   %wait    %CPU   CPU  minflt/s  majflt/s     VSZ     RSS   %MEM   kB_rd/s   kB_wr/s kB_ccwr/s iodelay  Command
12:40:45 PM  1006    221656   39.00   59.00    0.00    0.00   98.00    20   9521.00      0.00  671088  596456   0.23  14615.50  32768.00      0.00       2  perf_experiment

# Time        UID       PID    %usr %system  %guest   %wait    %CPU   CPU  minflt/s  majflt/s     VSZ     RSS   %MEM   kB_rd/s   kB_wr/s kB_ccwr/s iodelay  Command
12:40:46 PM  1006    221656   37.00   63.00    0.00    0.00  100.00    20   1369.00      0.00  671212  596548   0.23  15279.00      0.00      0.00       0  perf_experiment

# Time        UID       PID    %usr %system  %guest   %wait    %CPU   CPU  minflt/s  majflt/s     VSZ     RSS   %MEM   kB_rd/s   kB_wr/s kB_ccwr/s iodelay  Command
12:40:47 PM  1006    221656   34.00   66.00    0.00    0.00  100.00    20   1374.00      0.00  671212  596564   0.23  15300.50      0.00      0.00       0  perf_experiment

# Time        UID       PID    %usr %system  %guest   %wait    %CPU   CPU  minflt/s  majflt/s     VSZ     RSS   %MEM   kB_rd/s   kB_wr/s kB_ccwr/s iodelay  Command
12:40:48 PM  1006    221656   41.00   59.00    0.00    0.00  100.00    20   1368.00      0.00  671304  596604   0.23  15110.50      0.00      0.00       0  perf_experiment

# Time        UID       PID    %usr %system  %guest   %wait    %CPU   CPU  minflt/s  majflt/s     VSZ     RSS   %MEM   kB_rd/s   kB_wr/s kB_ccwr/s iodelay  Command
12:40:49 PM  1006    221656   36.00   64.00    0.00    0.00  100.00    20   1353.00      0.00  671304  596656   0.23  15245.00      0.00      0.00       0  perf_experiment

# Time        UID       PID    %usr %system  %guest   %wait    %CPU   CPU  minflt/s  majflt/s     VSZ     RSS   %MEM   kB_rd/s   kB_wr/s kB_ccwr/s iodelay  Command
12:40:50 PM  1006    221656   35.00   65.00    0.00    0.00  100.00    20   1381.00      0.00  671408  596692   0.23  15196.50      0.00      0.00       0  perf_experiment

# Time        UID       PID    %usr %system  %guest   %wait    %CPU   CPU  minflt/s  majflt/s     VSZ     RSS   %MEM   kB_rd/s   kB_wr/s kB_ccwr/s iodelay  Command
12:40:51 PM  1006    221656   39.00   58.00    0.00    0.00   97.00    20   9420.00      0.00  671408  596740   0.23  15246.50  32768.00      0.00       2  perf_experiment

# Time        UID       PID    %usr %system  %guest   %wait    %CPU   CPU  minflt/s  majflt/s     VSZ     RSS   %MEM   kB_rd/s   kB_wr/s kB_ccwr/s iodelay  Command
12:40:52 PM  1006    221656   41.00   60.00    0.00    0.00  101.00    20    401.00      0.00  671408  596772   0.23  15059.00      0.00      0.00       0  perf_experiment

# Time        UID       PID    %usr %system  %guest   %wait    %CPU   CPU  minflt/s  majflt/s     VSZ     RSS   %MEM   kB_rd/s   kB_wr/s kB_ccwr/s iodelay  Command
12:40:53 PM  1006    221656   37.00   63.00    0.00    0.00  100.00    20    125.00      0.00  671524  596792   0.23  15311.00      0.00      0.00       0  perf_experiment

# Time        UID       PID    %usr %system  %guest   %wait    %CPU   CPU  minflt/s  majflt/s     VSZ     RSS   %MEM   kB_rd/s   kB_wr/s kB_ccwr/s iodelay  Command
12:40:54 PM  1006    221656   39.00   61.00    0.00    0.00  100.00    20    148.00      0.00  671524  596872   0.23  15470.50      0.00      0.00       0  perf_experiment

# Time        UID       PID    %usr %system  %guest   %wait    %CPU   CPU  minflt/s  majflt/s     VSZ     RSS   %MEM   kB_rd/s   kB_wr/s kB_ccwr/s iodelay  Command
12:40:55 PM  1006    221656   34.00   66.00    0.00    0.00  100.00    20    109.00      0.00  671608  596908   0.23  15264.00      0.00      0.00       0  perf_experiment

# Time        UID       PID    %usr %system  %guest   %wait    %CPU   CPU  minflt/s  majflt/s     VSZ     RSS   %MEM   kB_rd/s   kB_wr/s kB_ccwr/s iodelay  Command
12:40:56 PM  1006    221656   37.00   63.00    0.00    0.00  100.00    20    638.00      0.00  671608  596956   0.23  15205.00      0.00      0.00       0  perf_experiment

# Time        UID       PID    %usr %system  %guest   %wait    %CPU   CPU  minflt/s  majflt/s     VSZ     RSS   %MEM   kB_rd/s   kB_wr/s kB_ccwr/s iodelay  Command
12:40:57 PM  1006    221656   38.00   60.00    0.00    0.00   98.00    20   9541.00      0.00  671608  596976   0.23  14852.50  32768.00      0.00       2  perf_experiment

# Time        UID       PID    %usr %system  %guest   %wait    %CPU   CPU  minflt/s  majflt/s     VSZ     RSS   %MEM   kB_rd/s   kB_wr/s kB_ccwr/s iodelay  Command
12:40:58 PM  1006    221656   38.00   62.00    0.00    0.00  100.00    20   1417.00      0.00  671716  597052   0.23  15186.00      0.00      0.00       0  perf_experiment

# Time        UID       PID    %usr %system  %guest   %wait    %CPU   CPU  minflt/s  majflt/s     VSZ     RSS   %MEM   kB_rd/s   kB_wr/s kB_ccwr/s iodelay  Command
12:40:59 PM  1006    221656   37.00   63.00    0.00    0.00  100.00    20   1361.00      0.00  671716  597068   0.23  15125.50      0.00      0.00       0  perf_experiment

# Time        UID       PID    %usr %system  %guest   %wait    %CPU   CPU  minflt/s  majflt/s     VSZ     RSS   %MEM   kB_rd/s   kB_wr/s kB_ccwr/s iodelay  Command
12:41:00 PM  1006    221656   41.00   58.00    0.00    0.00   99.00    20   1362.00      0.00  671812  597124   0.23  15354.00      0.00      0.00       0  perf_experiment

# Time        UID       PID    %usr %system  %guest   %wait    %CPU   CPU  minflt/s  majflt/s     VSZ     RSS   %MEM   kB_rd/s   kB_wr/s kB_ccwr/s iodelay  Command
12:41:01 PM  1006    221656   43.00   58.00    0.00    0.00  101.00    20   1384.00      0.00  671812  597156   0.23  15367.50      0.00      0.00       0  perf_experiment

# Time        UID       PID    %usr %system  %guest   %wait    %CPU   CPU  minflt/s  majflt/s     VSZ     RSS   %MEM   kB_rd/s   kB_wr/s kB_ccwr/s iodelay  Command
12:41:02 PM  1006    221656   31.00   68.00    0.00    0.00   99.00    20   1390.00      0.00  671812  597188   0.23  15405.50      0.00      0.00       0  perf_experiment

# Time        UID       PID    %usr %system  %guest   %wait    %CPU   CPU  minflt/s  majflt/s     VSZ     RSS   %MEM   kB_rd/s   kB_wr/s kB_ccwr/s iodelay  Command
12:41:03 PM  1006    221656   39.00   59.00    0.00    0.00   98.00    20   8943.00      0.00  671940  597248   0.23  14393.50  32768.00      0.00       2  perf_experiment

# Time        UID       PID    %usr %system  %guest   %wait    %CPU   CPU  minflt/s  majflt/s     VSZ     RSS   %MEM   kB_rd/s   kB_wr/s kB_ccwr/s iodelay  Command
12:41:04 PM  1006    221656   38.00   62.00    0.00    0.00  100.00    20     34.00      0.00  671940  597276   0.23  15609.00      0.00      0.00       0  perf_experiment

# Time        UID       PID    %usr %system  %guest   %wait    %CPU   CPU  minflt/s  majflt/s     VSZ     RSS   %MEM   kB_rd/s   kB_wr/s kB_ccwr/s iodelay  Command
12:41:05 PM  1006    221656   40.00   61.00    0.00    0.00  101.00    20     24.00      0.00  671940  597276   0.23  15304.50      0.00      0.00       0  perf_experiment

# Time        UID       PID    %usr %system  %guest   %wait    %CPU   CPU  minflt/s  majflt/s     VSZ     RSS   %MEM   kB_rd/s   kB_wr/s kB_ccwr/s iodelay  Command
12:41:06 PM  1006    221656   42.00   57.00    0.00    0.00   99.00    20     25.00      0.00  672056  597332   0.23  15187.50      0.00      0.00       0  perf_experiment

# Time        UID       PID    %usr %system  %guest   %wait    %CPU   CPU  minflt/s  majflt/s     VSZ     RSS   %MEM   kB_rd/s   kB_wr/s kB_ccwr/s iodelay  Command
12:41:07 PM  1006    221656   38.00   63.00    0.00    0.00  101.00    20   1346.00      0.00  672056  597424   0.23  15134.50      0.00      0.00       0  perf_experiment

# Time        UID       PID    %usr %system  %guest   %wait    %CPU   CPU  minflt/s  majflt/s     VSZ     RSS   %MEM   kB_rd/s   kB_wr/s kB_ccwr/s iodelay  Command
12:41:08 PM  1006    221656   42.00   58.00    0.00    0.00  100.00    20    252.00      0.00  672168  597460   0.23  15310.50      0.00      0.00       0  perf_experiment

# Time        UID       PID    %usr %system  %guest   %wait    %CPU   CPU  minflt/s  majflt/s     VSZ     RSS   %MEM   kB_rd/s   kB_wr/s kB_ccwr/s iodelay  Command
12:41:09 PM  1006    221656   37.00   60.00    0.00    0.00   97.00    20   8401.00      0.00  672168  597500   0.23  14899.00  32768.00      0.00       2  perf_experiment

# Time        UID       PID    %usr %system  %guest   %wait    %CPU   CPU  minflt/s  majflt/s     VSZ     RSS   %MEM   kB_rd/s   kB_wr/s kB_ccwr/s iodelay  Command
12:41:10 PM  1006    221656   33.00   67.00    0.00    0.00  100.00    20    138.00      0.00  672168  597504   0.23  15141.00      0.00      0.00       0  perf_experiment

# Time        UID       PID    %usr %system  %guest   %wait    %CPU   CPU  minflt/s  majflt/s     VSZ     RSS   %MEM   kB_rd/s   kB_wr/s kB_ccwr/s iodelay  Command
12:41:11 PM  1006    221656   33.00   67.00    0.00    0.00  100.00    20     71.00      0.00  672296  597556   0.23  15605.50      0.00      0.00       0  perf_experiment

# Time        UID       PID    %usr %system  %guest   %wait    %CPU   CPU  minflt/s  majflt/s     VSZ     RSS   %MEM   kB_rd/s   kB_wr/s kB_ccwr/s iodelay  Command
12:41:12 PM  1006    221656   35.00   65.00    0.00    0.00  100.00    20     27.00      0.00  672296  597632   0.23  15212.00      0.00      0.00       0  perf_experiment

# Time        UID       PID    %usr %system  %guest   %wait    %CPU   CPU  minflt/s  majflt/s     VSZ     RSS   %MEM   kB_rd/s   kB_wr/s kB_ccwr/s iodelay  Command
12:41:13 PM  1006    221656   37.00   63.00    0.00    0.00  100.00    20   1005.00      0.00  672296  597672   0.23  15321.50      0.00      0.00       0  perf_experiment

# Time        UID       PID    %usr %system  %guest   %wait    %CPU   CPU  minflt/s  majflt/s     VSZ     RSS   %MEM   kB_rd/s   kB_wr/s kB_ccwr/s iodelay  Command
12:41:14 PM  1006    221656   38.00   62.00    0.00    0.00  100.00    20   1407.00      0.00  672424  597732   0.23  15244.00      0.00      0.00       0  perf_experiment

# Time        UID       PID    %usr %system  %guest   %wait    %CPU   CPU  minflt/s  majflt/s     VSZ     RSS   %MEM   kB_rd/s   kB_wr/s kB_ccwr/s iodelay  Command
12:41:15 PM  1006    221656   37.00   61.00    0.00    0.00   98.00    20   9514.00      0.00  672424  597780   0.23  14618.00  32768.00      0.00       2  perf_experiment

# Time        UID       PID    %usr %system  %guest   %wait    %CPU   CPU  minflt/s  majflt/s     VSZ     RSS   %MEM   kB_rd/s   kB_wr/s kB_ccwr/s iodelay  Command
12:41:16 PM  1006    221656   36.00   64.00    0.00    0.00  100.00    20   1377.00      0.00  672424  597784   0.23  15336.50      0.00      0.00       0  perf_experiment

# Time        UID       PID    %usr %system  %guest   %wait    %CPU   CPU  minflt/s  majflt/s     VSZ     RSS   %MEM   kB_rd/s   kB_wr/s kB_ccwr/s iodelay  Command
12:41:17 PM  1006    221656   38.00   62.00    0.00    0.00  100.00    20   1372.00      0.00  672524  597852   0.23  15352.50      0.00      0.00       0  perf_experiment

# Time        UID       PID    %usr %system  %guest   %wait    %CPU   CPU  minflt/s  majflt/s     VSZ     RSS   %MEM   kB_rd/s   kB_wr/s kB_ccwr/s iodelay  Command
12:41:18 PM  1006    221656   42.00   59.00    0.00    0.00  101.00    20   1333.00      0.00  672524  597872   0.23  15055.50      0.00      0.00       0  perf_experiment

# Time        UID       PID    %usr %system  %guest   %wait    %CPU   CPU  minflt/s  majflt/s     VSZ     RSS   %MEM   kB_rd/s   kB_wr/s kB_ccwr/s iodelay  Command
12:41:19 PM  1006    221656   38.00   62.00    0.00    0.00  100.00    20   1389.00      0.00  672632  597932   0.23  15432.50      0.00      0.00       0  perf_experiment

# Time        UID       PID    %usr %system  %guest   %wait    %CPU   CPU  minflt/s  majflt/s     VSZ     RSS   %MEM   kB_rd/s   kB_wr/s kB_ccwr/s iodelay  Command
12:41:20 PM  1006    221656   38.00   61.00    0.00    0.00   99.00    20   1365.00      0.00  672632  597968   0.23  15347.50      0.00      0.00       0  perf_experiment

# Time        UID       PID    %usr %system  %guest   %wait    %CPU   CPU  minflt/s  majflt/s     VSZ     RSS   %MEM   kB_rd/s   kB_wr/s kB_ccwr/s iodelay  Command
12:41:21 PM  1006    221656   34.00   64.00    0.00    0.00   98.00    20   9520.00      0.00  672632  598008   0.23  14727.50  32768.00      0.00       0  perf_experiment

# Time        UID       PID    %usr %system  %guest   %wait    %CPU   CPU  minflt/s  majflt/s     VSZ     RSS   %MEM   kB_rd/s   kB_wr/s kB_ccwr/s iodelay  Command
12:41:22 PM  1006    221656   35.00   65.00    0.00    0.00  100.00    20     36.00      0.00  672732  598016   0.23  15226.00      0.00      0.00       2  perf_experiment

# Time        UID       PID    %usr %system  %guest   %wait    %CPU   CPU  minflt/s  majflt/s     VSZ     RSS   %MEM   kB_rd/s   kB_wr/s kB_ccwr/s iodelay  Command
12:41:23 PM  1006    221656   38.00   62.00    0.00    0.00  100.00    20     11.00      0.00  672732  598016   0.23  15550.00      0.00      0.00       0  perf_experiment

# Time        UID       PID    %usr %system  %guest   %wait    %CPU   CPU  minflt/s  majflt/s     VSZ     RSS   %MEM   kB_rd/s   kB_wr/s kB_ccwr/s iodelay  Command
12:41:24 PM  1006    221656   35.00   65.00    0.00    0.00  100.00    20     23.00      0.00  672840  598132   0.23  15158.50      0.00      0.00       0  perf_experiment

# Time        UID       PID    %usr %system  %guest   %wait    %CPU   CPU  minflt/s  majflt/s     VSZ     RSS   %MEM   kB_rd/s   kB_wr/s kB_ccwr/s iodelay  Command
12:41:25 PM  1006    221656   34.00   66.00    0.00    0.00  100.00    20     28.00      0.00  672840  598132   0.23  15202.00      0.00      0.00       0  perf_experiment

# Time        UID       PID    %usr %system  %guest   %wait    %CPU   CPU  minflt/s  majflt/s     VSZ     RSS   %MEM   kB_rd/s   kB_wr/s kB_ccwr/s iodelay  Command
12:41:26 PM  1006    221656   39.00   61.00    0.00    0.00  100.00    20     22.00      0.00  672840  598132   0.23  15242.00      0.00      0.00       0  perf_experiment

# Time        UID       PID    %usr %system  %guest   %wait    %CPU   CPU  minflt/s  majflt/s     VSZ     RSS   %MEM   kB_rd/s   kB_wr/s kB_ccwr/s iodelay  Command
12:41:27 PM  1006    221656   39.00   61.00    0.00    0.00  100.00    20   1611.00      0.00  672960  598296   0.23  15575.00      0.00      0.00       0  perf_experiment

# Time        UID       PID    %usr %system  %guest   %wait    %CPU   CPU  minflt/s  majflt/s     VSZ     RSS   %MEM   kB_rd/s   kB_wr/s kB_ccwr/s iodelay  Command
12:41:28 PM  1006    221656   39.00   59.00    0.00    0.00   98.00    20   8613.00      0.00  672960  598304   0.23  14762.50  32768.00      0.00       3  perf_experiment

# Time        UID       PID    %usr %system  %guest   %wait    %CPU   CPU  minflt/s  majflt/s     VSZ     RSS   %MEM   kB_rd/s   kB_wr/s kB_ccwr/s iodelay  Command
12:41:29 PM  1006    221656   40.00   60.00    0.00    0.00  100.00    20    304.00      0.00  673056  598364   0.23  15078.50      0.00      0.00       0  perf_experiment

# Time        UID       PID    %usr %system  %guest   %wait    %CPU   CPU  minflt/s  majflt/s     VSZ     RSS   %MEM   kB_rd/s   kB_wr/s kB_ccwr/s iodelay  Command
12:41:30 PM  1006    221656   35.00   65.00    0.00    0.00  100.00    20    267.00      0.00  673056  598416   0.23  15399.50      0.00      0.00       0  perf_experiment

# Time        UID       PID    %usr %system  %guest   %wait    %CPU   CPU  minflt/s  majflt/s     VSZ     RSS   %MEM   kB_rd/s   kB_wr/s kB_ccwr/s iodelay  Command