4,Faster,1,5000000,2500000,512,2048,146278,4101775


resource usage stats

Linux 5.4.0-42-generic (arcon1) 	10/25/2020 	_x86_64_	(64 CPU)

# Time        UID       PID    %usr %system  %guest   %wait    %CPU   CPU  minflt/s  majflt/s     VSZ     RSS   %MEM   kB_rd/s   kB_wr/s kB_ccwr/s iodelay  Command
08:32:17 AM  1006    220745   70.30   27.72    0.00    0.00   98.02    36 143715.84      0.00  660632  585880   0.22      0.00      3.96      0.00       0  perf_experiment

# Time        UID       PID    %usr %system  %guest   %wait    %CPU   CPU  minflt/s  majflt/s     VSZ     RSS   %MEM   kB_rd/s   kB_wr/s kB_ccwr/s iodelay  Command
08:32:18 AM  1006    220745   79.00   17.00    0.00    0.00   96.00    36  47805.00      0.00  664352  589632   0.22      0.00  65536.00      0.00       2  perf_experiment

# Time        UID       PID    %usr %system  %guest   %wait    %CPU   CPU  minflt/s  majflt/s     VSZ     RSS   %MEM   kB_rd/s   kB_wr/s kB_ccwr/s iodelay  Command
08:32:19 AM  1006    220745   79.00   10.00    0.00    0.00   89.00    36  42508.00      0.00  667452  592716   0.22      0.00 163840.00      0.00      13  perf_experiment

# Time        UID       PID    %usr %system  %guest   %wait    %CPU   CPU  minflt/s  majflt/s     VSZ     RSS   %MEM   kB_rd/s   kB_wr/s kB_ccwr/s iodelay  Command
08:32:20 AM  1006    220745   77.00   11.00    0.00    0.00   88.00    36  48514.00      0.00  670552  595816   0.23      0.00 163840.00      0.00      12  perf_experiment

# Time        UID       PID    %usr %system  %guest   %wait    %CPU   CPU  minflt/s  majflt/s     VSZ     RSS   %MEM   kB_rd/s   kB_wr/s kB_ccwr/s iodelay  Command
08:32:21 AM  1006    220745   78.00   10.00    0.00    0.00   88.00    36  46514.00      0.00  673776  599056   0.23      0.00 196608.00      0.00      11  perf_experiment

# Time        UID       PID    %usr %system  %guest   %wait    %CPU   CPU  minflt/s  majflt/s     VSZ     RSS   %MEM   kB_rd/s   kB_wr/s kB_ccwr/s iodelay  Command
08:32:22 AM  1006    220745   75.00   11.00    0.00    0.00   86.00    36  58186.00      0.00  676752  602020   0.23      0.00 163840.00      0.00      14  perf_experiment

# Time        UID       PID    %usr %system  %guest   %wait    %CPU   CPU  minflt/s  majflt/s     VSZ     RSS   %MEM   kB_rd/s   kB_wr/s kB_ccwr/s iodelay  Command
08:32:23 AM  1006    220745   80.00    9.00    0.00    0.00   89.00    36  54741.00      0.00  679852  605188   0.23      0.00 163840.00      0.00      11  perf_experiment

# Time        UID       PID    %usr %system  %guest   %wait    %CPU   CPU  minflt/s  majflt/s     VSZ     RSS   %MEM   kB_rd/s   kB_wr/s kB_ccwr/s iodelay  Command
08:32:24 AM  1006    220745   77.00   12.00    0.00    0.00   89.00    36  42800.00      0.00  682952  608332   0.23      0.00 163840.00      0.00      12  perf_experiment

# Time        UID       PID    %usr %system  %guest   %wait    %CPU   CPU  minflt/s  majflt/s     VSZ     RSS   %MEM   kB_rd/s   kB_wr/s kB_ccwr/s iodelay  Command
08:32:25 AM  1006    220745   78.00    9.00    0.00    0.00   87.00    36  42651.00      0.00  686052  611404   0.23      0.00 196608.00      0.00      12  perf_experiment

# Time        UID       PID    %usr %system  %guest   %wait    %CPU   CPU  minflt/s  majflt/s     VSZ     RSS   %MEM   kB_rd/s   kB_wr/s kB_ccwr/s iodelay  Command
08:32:26 AM  1006    220745   75.00   12.00    0.00    0.00   87.00    36  43661.00      0.00  689152  614416   0.23      0.00 163840.00      0.00      14  perf_experiment

# Time        UID       PID    %usr %system  %guest   %wait    %CPU   CPU  minflt/s  majflt/s     VSZ     RSS   %MEM   kB_rd/s   kB_wr/s kB_ccwr/s iodelay  Command
08:32:27 AM  1006    220745   75.00   12.00    0.00    0.00   87.00    36  36445.00      0.00  692252  617520   0.23      0.00 163840.00      0.00      12  perf_experiment

# Time        UID       PID    %usr %system  %guest   %wait    %CPU   CPU  minflt/s  majflt/s     VSZ     RSS   %MEM   kB_rd/s   kB_wr/s kB_ccwr/s iodelay  Command
08:32:28 AM  1006    220745   77.00   13.00    0.00    0.00   90.00    36  17620.00      0.00  695352  620660   0.24      0.00 163840.00      0.00      11  perf_experiment

# Time        UID       PID    %usr %system  %guest   %wait    %CPU   CPU  minflt/s  majflt/s     VSZ     RSS   %MEM   kB_rd/s   kB_wr/s kB_ccwr/s iodelay  Command
08:32:29 AM  1006    220745   74.00   11.00    0.00    0.00   85.00    36   9143.00      0.00  698452  623716   0.24      0.00 196608.00      0.00      15  perf_experiment

# Time        UID       PID    %usr %system  %guest   %wait    %CPU   CPU  minflt/s  majflt/s     VSZ     RSS   %MEM   kB_rd/s   kB_wr/s kB_ccwr/s iodelay  Command
08:32:30 AM  1006    220745   75.00   13.00    0.00    0.00   88.00    36  41243.00      0.00  701552  626816   0.24      0.00 163840.00      0.00      12  perf_experiment

# Time        UID       PID    %usr %system  %guest   %wait    %CPU   CPU  minflt/s  majflt/s     VSZ     RSS   %MEM   kB_rd/s   kB_wr/s kB_ccwr/s iodelay  Command
08:32:31 AM  1006    220745   89.00    5.00    0.00    0.00   94.00    36   7094.00      0.00  703184  628368   0.24   9739.00  65536.00      0.00       5  perf_experiment

# Time        UID       PID    %usr %system  %guest   %wait    %CPU   CPU  minflt/s  majflt/s     VSZ     RSS   %MEM   kB_rd/s   kB_wr/s kB_ccwr/s iodelay  Command
08:32:32 AM  1006    220745   93.00    6.00    0.00    0.00   99.00    36   8285.00      0.00  703568  628836   0.24  17028.50  32768.00      0.00       2  perf_experiment

# Time        UID       PID    %usr %system  %guest   %wait    %CPU   CPU  minflt/s  majflt/s     VSZ     RSS   %MEM   kB_rd/s   kB_wr/s kB_ccwr/s iodelay  Command
08:32:33 AM  1006    220745   95.00    2.00    0.00    0.00   97.00    36  11001.00      0.00  703836  629132   0.24  17072.00  32768.00      0.00       3  perf_experiment

# Time        UID       PID    %usr %system  %guest   %wait    %CPU   CPU  minflt/s  majflt/s     VSZ     RSS   %MEM   kB_rd/s   kB_wr/s kB_ccwr/s iodelay  Command
08:32:34 AM  1006    220745   87.00    6.00    0.00    0.00   93.00    36  18670.00      0.00  705704  631028   0.24   7420.50  98304.00      0.00       7  perf_experiment

# Time        UID       PID    %usr %system  %guest   %wait    %CPU   CPU  minflt/s  majflt/s     VSZ     RSS   %MEM   kB_rd/s   kB_wr/s kB_ccwr/s iodelay  Command
08:32:35 AM  1006    220745   93.00    5.00    0.00    0.00   98.00    36  14287.00      0.00  706340  631492   0.24  15417.00  32768.00      0.00       2  perf_experiment

# Time        UID       PID    %usr %system  %guest   %wait    %CPU   CPU  minflt/s  majflt/s     VSZ     RSS   %MEM   kB_rd/s   kB_wr/s kB_ccwr/s iodelay  Command
08:32:36 AM  1006    220745   97.00    3.00    0.00    0.00  100.00    36    125.00      0.00  706740  631884   0.24  17751.00      0.00      0.00       0  perf_experiment

# Time        UID       PID    %usr %system  %guest   %wait    %CPU   CPU  minflt/s  majflt/s     VSZ     RSS   %MEM   kB_rd/s   kB_wr/s kB_ccwr/s iodelay  Command
08:32:37 AM  1006    220745   92.00    5.00    0.00    0.00   97.00    36   8281.00      0.00  706992  632272   0.24  17045.00  32768.00      0.00       2  perf_experiment

# Time        UID       PID    %usr %system  %guest   %wait    %CPU   CPU  minflt/s  majflt/s     VSZ     RSS   %MEM   kB_rd/s   kB_wr/s kB_ccwr/s iodelay  Command
08:32:38 AM  1006    220745   82.00    9.00    0.00    0.00   91.00    36  35472.00      0.00  709236  634532   0.24   5376.50 131072.00      0.00      10  perf_experiment

# Time        UID       PID    %usr %system  %guest   %wait    %CPU   CPU  minflt/s  majflt/s     VSZ     RSS   %MEM   kB_rd/s   kB_wr/s kB_ccwr/s iodelay  Command
08:32:39 AM  1006    220745   98.00    2.00    0.00    0.00  100.00    36   5492.00      0.00  709504  634872   0.24  17696.00      0.00      0.00       0  perf_experiment

# Time        UID       PID    %usr %system  %guest   %wait    %CPU   CPU  minflt/s  majflt/s     VSZ     RSS   %MEM   kB_rd/s   kB_wr/s kB_ccwr/s iodelay  Command
08:32:40 AM  1006    220745   95.00    3.00    0.00    0.00   98.00    36  11129.00      0.00  709900  635216   0.24  16929.00  32768.00      0.00       2  perf_experiment

# Time        UID       PID    %usr %system  %guest   %wait    %CPU   CPU  minflt/s  majflt/s     VSZ     RSS   %MEM   kB_rd/s   kB_wr/s kB_ccwr/s iodelay  Command
08:32:41 AM  1006    220745   89.00    5.00    0.00    0.00   94.00    36  25429.00      0.00  710904  636184   0.24  12367.00  65536.00      0.00       5  perf_experiment

# Time        UID       PID    %usr %system  %guest   %wait    %CPU   CPU  minflt/s  majflt/s     VSZ     RSS   %MEM   kB_rd/s   kB_wr/s kB_ccwr/s iodelay  Command
08:32:42 AM  1006    220745   89.00    7.00    0.00    0.00   96.00    36  16853.00      0.00  712412  637656   0.24  10835.50  65536.00      0.00       4  perf_experiment

# Time        UID       PID    %usr %system  %guest   %wait    %CPU   CPU  minflt/s  majflt/s     VSZ     RSS   %MEM   kB_rd/s   kB_wr/s kB_ccwr/s iodelay  Command
08:32:43 AM  1006    220745   94.00    4.00    0.00    0.00   98.00    36   8297.00      0.00  712672  638040   0.24  16973.50  32768.00      0.00       3  perf_experiment

# Time        UID       PID    %usr %system  %guest   %wait    %CPU   CPU  minflt/s  majflt/s     VSZ     RSS   %MEM   kB_rd/s   kB_wr/s kB_ccwr/s iodelay  Command
08:32:44 AM  1006    220745   97.00    3.00    0.00    0.00  100.00    36     95.00      0.00  713080  638296   0.24  17885.00      0.00      0.00       0  perf_experiment

# Time        UID       PID    %usr %system  %guest   %wait    %CPU   CPU  minflt/s  majflt/s     VSZ     RSS   %MEM   kB_rd/s   kB_wr/s kB_ccwr/s iodelay  Command
08:32:45 AM  1006    220745   83.00    7.00    0.00    0.00   90.00    36  26999.00      0.00  715196  640532   0.24   5593.00 131072.00      0.00       9  perf_experiment

# Time        UID       PID    %usr %system  %guest   %wait    %CPU   CPU  minflt/s  majflt/s     VSZ     RSS   %MEM   kB_rd/s   kB_wr/s kB_ccwr/s iodelay  Command
08:32:46 AM  1006    220745   95.00    3.00    0.00    0.00   98.00    36  14001.00      0.00  715588  640936   0.24  17023.00  32768.00      0.00       2  perf_experiment

# Time        UID       PID    %usr %system  %guest   %wait    %CPU   CPU  minflt/s  majflt/s     VSZ     RSS   %MEM   kB_rd/s   kB_wr/s kB_ccwr/s iodelay  Command
08:32:47 AM  1006    220745   95.00    5.00    0.00    0.00  100.00    36   5671.00      0.00  715996  641284   0.24  17707.50      0.00      0.00       0  perf_experiment

# Time        UID       PID    %usr %system  %guest   %wait    %CPU   CPU  minflt/s  majflt/s     VSZ     RSS   %MEM   kB_rd/s   kB_wr/s kB_ccwr/s iodelay  Command
08:32:48 AM  1006    220745   95.00    3.00    0.00    0.00   98.00    36   4124.00      0.00  716260  641576   0.24  16617.50  32768.00      0.00       3  perf_experiment

# Time        UID       PID    %usr %system  %guest   %wait    %CPU   CPU  minflt/s  majflt/s     VSZ     RSS   %MEM   kB_rd/s   kB_wr/s kB_ccwr/s iodelay  Command
08:32:49 AM  1006    220745   84.00    8.00    0.00    0.00   92.00    36  33602.00      0.00  718492  643772   0.24   6187.50  98304.00      0.00       7  perf_experiment

# Time        UID       PID    %usr %system  %guest   %wait    %CPU   CPU  minflt/s  majflt/s     VSZ     RSS   %MEM   kB_rd/s   kB_wr/s kB_ccwr/s iodelay  Command
08:32:50 AM  1006    220745   97.00    2.00    0.00    0.00   99.00    36   8281.00      0.00  718756  643900   0.24  17165.00  32768.00      0.00       2  perf_experiment

# Time        UID       PID    %usr %system  %guest   %wait    %CPU   CPU  minflt/s  majflt/s     VSZ     RSS   %MEM   kB_rd/s   kB_wr/s kB_ccwr/s iodelay  Command
08:32:51 AM  1006    220745   94.00    3.00    0.00    0.00   97.00    36   8310.00      0.00  719144  644472   0.24  16980.00  32768.00      0.00       2  perf_experiment

# Time        UID       PID    %usr %system  %guest   %wait    %CPU   CPU  minflt/s  majflt/s     VSZ     RSS   %MEM   kB_rd/s   kB_wr/s kB_ccwr/s iodelay  Command
08:32:52 AM  1006    220745   89.00    6.00    0.00    0.00   95.00    36  16739.00      0.00  720476  645756   0.24  10990.00  65536.00      0.00       5  perf_experiment

# Time        UID       PID    %usr %system  %guest   %wait    %CPU   CPU  minflt/s  majflt/s     VSZ     RSS   %MEM   kB_rd/s   kB_wr/s kB_ccwr/s iodelay  Command
08:32:53 AM  1006    220745   90.00    6.00    0.00    0.00   96.00    36   2844.00      0.00  721592  646872   0.25  12389.50  65536.00      0.00       5  perf_experiment

# Time        UID       PID    %usr %system  %guest   %wait    %CPU   CPU  minflt/s  majflt/s     VSZ     RSS   %MEM   kB_rd/s   kB_wr/s kB_ccwr/s iodelay  Command
08:32:54 AM  1006    220745   98.00    2.00    0.00    0.00  100.00    36     88.00      0.00  721996  647132   0.25  17890.00      0.00      0.00       0  perf_experiment

# Time        UID       PID    %usr %system  %guest   %wait    %CPU   CPU  minflt/s  majflt/s     VSZ     RSS   %MEM   kB_rd/s   kB_wr/s kB_ccwr/s iodelay  Command
08:32:55 AM  1006    220745   94.00    4.00    0.00    0.00   98.00    36  11968.00      0.00  722392  647664   0.25  17219.00  32768.00      0.00       2  perf_experiment

# Time        UID       PID    %usr %system  %guest   %wait    %CPU   CPU  minflt/s  majflt/s     VSZ     RSS   %MEM   kB_rd/s   kB_wr/s kB_ccwr/s iodelay  Command
08:32:56 AM  1006    220745   81.00    9.00    0.00    0.00   90.00    36   6879.00      0.00  724484  649760   0.25   5283.00 131072.00      0.00      10  perf_experiment

# Time        UID       PID    %usr %system  %guest   %wait    %CPU   CPU  minflt/s  majflt/s     VSZ     RSS   %MEM   kB_rd/s   kB_wr/s kB_ccwr/s iodelay  Command
08:32:57 AM  1006    220745   98.00    2.00    0.00    0.00  100.00    36     95.00      0.00  724856  650024   0.25  17726.00      0.00      0.00       0  perf_experiment

# Time        UID       PID    %usr %system  %guest   %wait    %CPU   CPU  minflt/s  majflt/s     VSZ     RSS   %MEM   kB_rd/s   kB_wr/s kB_ccwr/s iodelay  Command
08:32:58 AM  1006    220745   93.00    5.00    0.00    0.00   98.00    36    101.00      0.00  725244  650392   0.25  17056.00  32768.00      0.00       2  perf_experiment

# Time        UID       PID    %usr %system  %guest   %wait    %CPU   CPU  minflt/s  majflt/s     VSZ     RSS   %MEM   kB_rd/s   kB_wr/s kB_ccwr/s iodelay  Command
08:32:59 AM  1006    220745   94.00    4.00    0.00    0.00   98.00    36  17883.00      0.00  725884  651200   0.25  14997.00  32768.00      0.00       2  perf_experiment

# Time        UID       PID    %usr %system  %guest   %wait    %CPU   CPU  minflt/s  majflt/s     VSZ     RSS   %MEM   kB_rd/s   kB_wr/s kB_ccwr/s iodelay  Command
08:33:00 AM  1006    220745   86.00    6.00    0.00    0.00   92.00    36  29127.00      0.00  727764  652908   0.25   7884.50  98304.00      0.00       7  perf_experiment

# Time        UID       PID    %usr %system  %guest   %wait    %CPU   CPU  minflt/s  majflt/s     VSZ     RSS   %MEM   kB_rd/s   kB_wr/s kB_ccwr/s iodelay  Command
08:33:01 AM  1006    220745   95.00    3.00    0.00    0.00   98.00    36    930.00      0.00  728020  653284   0.25  16919.50  32768.00      0.00       2  perf_experiment

# Time        UID       PID    %usr %system  %guest   %wait    %CPU   CPU  minflt/s  majflt/s     VSZ     RSS   %MEM   kB_rd/s   kB_wr/s kB_ccwr/s iodelay  Command
08:33:02 AM  1006    220745   96.00    4.00    0.00    0.00  100.00    36    123.00      0.00  728412  653688   0.25  17669.50      0.00      0.00       0  perf_experiment

# Time        UID       PID    %usr %system  %guest   %wait    %CPU   CPU  minflt/s  majflt/s     VSZ     RSS   %MEM   kB_rd/s   kB_wr/s kB_ccwr/s iodelay  Command
08:33:03 AM  1006    220745   87.00    7.00    0.00    0.00   94.00    36  25093.00      0.00  730032  655308   0.25   8803.00  98304.00      0.00       7  perf_experiment

# Time        UID       PID    %usr %system  %guest   %wait    %CPU   CPU  minflt/s  majflt/s     VSZ     RSS   %MEM   kB_rd/s   kB_wr/s kB_ccwr/s iodelay  Command
08:33:04 AM  1006    220745   90.00    4.00    0.00    0.00   94.00    36  11418.00      0.00  730912  656224   0.25  13761.50  65536.00      0.00       5  perf_experiment

# Time        UID       PID    %usr %system  %guest   %wait    %CPU   CPU  minflt/s  majflt/s     VSZ     RSS   %MEM   kB_rd/s   kB_wr/s kB_ccwr/s iodelay  Command
08:33:05 AM  1006    220745   98.00    3.00    0.00    0.00  101.00    36    102.00      0.00  731292  656448   0.25  18079.00      0.00      0.00       0  perf_experiment

# Time        UID       PID    %usr %system  %guest   %wait    %CPU   CPU  minflt/s  majflt/s     VSZ     RSS   %MEM   kB_rd/s   kB_wr/s kB_ccwr/s iodelay  Command
08:33:06 AM  1006    220745   95.00    2.00    0.00    0.00   97.00    36     99.00      0.00  731560  656900   0.25  17560.00  32768.00      0.00       2  perf_experiment

# Time        UID       PID    %usr %system  %guest   %wait    %CPU   CPU  minflt/s  majflt/s     VSZ     RSS   %MEM   kB_rd/s   kB_wr/s kB_ccwr/s iodelay  Command
08:33:07 AM  1006    220745   87.00    7.00    0.00    0.00   94.00    36   3103.00      0.00  733788  659104   0.25   6111.50  98304.00      0.00       7  perf_experiment

# Time        UID       PID    %usr %system  %guest   %wait    %CPU   CPU  minflt/s  majflt/s     VSZ     RSS   %MEM   kB_rd/s   kB_wr/s kB_ccwr/s iodelay  Command
08:33:08 AM  1006    220745   95.00    2.00    0.00    0.00   97.00    36   6003.00      0.00  734188  659444   0.25  17373.00  32768.00      0.00       2  perf_experiment

# Time        UID       PID    %usr %system  %guest   %wait    %CPU   CPU  minflt/s  majflt/s     VSZ     RSS   %MEM   kB_rd/s   kB_wr/s kB_ccwr/s iodelay  Command
08:33:09 AM  1006    220745   96.00    2.00    0.00    0.00   98.00    36   8517.00      0.00  734448  659752   0.25  17542.00  32768.00      0.00       2  perf_experiment

# Time        UID       PID    %usr %system  %guest   %wait    %CPU   CPU  minflt/s  majflt/s     VSZ     RSS   %MEM   kB_rd/s   kB_wr/s kB_ccwr/s iodelay  Command
08:33:10 AM  1006    220745   89.00    6.00    0.00    0.00   95.00    36    347.00      0.00  735580  660860   0.25  12151.00  65536.00      0.00       5  perf_experiment

# Time        UID       PID    %usr %system  %guest   %wait    %CPU   CPU  minflt/s  majflt/s     VSZ     RSS   %MEM   kB_rd/s   kB_wr/s kB_ccwr/s iodelay  Command
08:33:11 AM  1006    220745   91.00    4.00    0.00    0.00   95.00    36    401.00      0.00  736968  662216   0.25  10968.00  65536.00      0.00       5  perf_experiment

# Time        UID       PID    %usr %system  %guest   %wait    %CPU   CPU  minflt/s  majflt/s     VSZ     RSS   %MEM   kB_rd/s   kB_wr/s kB_ccwr/s iodelay  Command
08:33:12 AM  1006    220745   99.00    2.00    0.00    0.00  101.00    36   2908.00      0.00  737376  662656   0.25  17530.50      0.00      0.00       0  perf_experiment

# Time        UID       PID    %usr %system  %guest   %wait    %CPU   CPU  minflt/s  majflt/s     VSZ     RSS   %MEM   kB_rd/s   kB_wr/s kB_ccwr/s iodelay  Command
08:33:13 AM  1006    220745   94.00    2.00    0.00    0.00   96.00    36  12829.00      0.00  737644  663004   0.25  16960.50  32768.00      0.00       3  perf_experiment

# Time        UID       PID    %usr %system  %guest   %wait    %CPU   CPU  minflt/s  majflt/s     VSZ     RSS   %MEM   kB_rd/s   kB_wr/s kB_ccwr/s iodelay  Command
08:33:14 AM  1006    220745   86.00    6.00    0.00    0.00   92.00    36  37430.00      0.00  739756  665036   0.25   5835.00 131072.00      0.00       9  perf_experiment

# Time        UID       PID    %usr %system  %guest   %wait    %CPU   CPU  minflt/s  majflt/s     VSZ     RSS   %MEM   kB_rd/s   kB_wr/s kB_ccwr/s iodelay  Command
08:33:15 AM  1006    220745   96.00    3.00    0.00    0.00   99.00    36    134.00      0.00  740256  665552   0.25  17514.00      0.00      0.00       0  perf_experiment

# Time        UID       PID    %usr %system  %guest   %wait    %CPU   CPU  minflt/s  majflt/s     VSZ     RSS   %MEM   kB_rd/s   kB_wr/s kB_ccwr/s iodelay  Command
08:33:16 AM  1006    220745   94.00    4.00    0.00    0.00   98.00    36   3245.00      0.00  740508  665796   0.25  17288.50  32768.00      0.00       2  perf_experiment

# Time        UID       PID    %usr %system  %guest   %wait    %CPU   CPU  minflt/s  majflt/s     VSZ     RSS   %MEM   kB_rd/s   kB_wr/s kB_ccwr/s iodelay  Command
08:33:17 AM  1006    220745   97.00    1.00    0.00    0.00   98.00    36    154.00      0.00  741012  666292   0.25  16508.00  32768.00      0.00       3  perf_experiment

# Time        UID       PID    %usr %system  %guest   %wait    %CPU   CPU  minflt/s  majflt/s     VSZ     RSS   %MEM   kB_rd/s   kB_wr/s kB_ccwr/s iodelay  Command
08:33:18 AM  1006    220745   85.00    8.00    0.00    0.00   93.00    36  22018.00      0.00  742996  668276   0.25   6664.00  98304.00      0.00       7  perf_experiment

# Time        UID       PID    %usr %system  %guest   %wait    %CPU   CPU  minflt/s  majflt/s     VSZ     RSS   %MEM   kB_rd/s   kB_wr/s kB_ccwr/s iodelay  Command
08:33:19 AM  1006    220745   96.00    1.00    0.00    0.00   97.00    36     90.00      0.00  743388  668508   0.25  17110.50  32768.00      0.00       2  perf_experiment

# Time        UID       PID    %usr %system  %guest   %wait    %CPU   CPU  minflt/s  majflt/s     VSZ     RSS   %MEM   kB_rd/s   kB_wr/s kB_ccwr/s iodelay  Command
08:33:20 AM  1006    220745   98.00    3.00    0.00    0.00  101.00    36     86.00      0.00  743784  669064   0.25  17757.00      0.00      0.00       0  perf_experiment

# Time        UID       PID    %usr %system  %guest   %wait    %CPU   CPU  minflt/s  majflt/s     VSZ     RSS   %MEM   kB_rd/s   kB_wr/s kB_ccwr/s iodelay  Command
08:33:21 AM  1006    220745   84.00    8.00    0.00    0.00   92.00    36    414.00      0.00  745280  670560   0.25   9750.50  98304.00      0.00       7  perf_experiment

# Time        UID       PID    %usr %system  %guest   %wait    %CPU   CPU  minflt/s  majflt/s     VSZ     RSS   %MEM   kB_rd/s   kB_wr/s kB_ccwr/s iodelay  Command
08:33:22 AM  1006    220745   91.00    5.00    0.00    0.00   96.00    36    283.00      0.00  746280  671568   0.25  12986.50  65536.00      0.00       5  perf_experiment

# Time        UID       PID    %usr %system  %guest   %wait    %CPU   CPU  minflt/s  majflt/s     VSZ     RSS   %MEM   kB_rd/s   kB_wr/s kB_ccwr/s iodelay  Command
08:33:23 AM  1006    220745   98.00    1.00    0.00    0.00   99.00    36   1315.00      0.00  746660  671924   0.25  17619.00      0.00      0.00       0  perf_experiment

# Time        UID       PID    %usr %system  %guest   %wait    %CPU   CPU  minflt/s  majflt/s     VSZ     RSS   %MEM   kB_rd/s   kB_wr/s kB_ccwr/s iodelay  Command
08:33:24 AM  1006    220745   97.00    1.00    0.00    0.00   98.00    36   2673.00      0.00  746904  672268   0.25  17180.50  32768.00      0.00       2  perf_experiment

# Time        UID       PID    %usr %system  %guest   %wait    %CPU   CPU  minflt/s  majflt/s     VSZ     RSS   %MEM   kB_rd/s   kB_wr/s kB_ccwr/s iodelay  Command
08:33:25 AM  1006    220745   84.00    8.00    0.00    0.00   92.00    36  10569.00      0.00  749144  674424   0.26   5839.50  98304.00      0.00       8  perf_experiment

# Time        UID       PID    %usr %system  %guest   %wait    %CPU   CPU  minflt/s  majflt/s     VSZ     RSS   %MEM   kB_rd/s   kB_wr/s kB_ccwr/s iodelay  Command
08:33:26 AM  1006    220745   95.00    3.00    0.00    0.00   98.00    36     90.00      0.00  749404  674552   0.26  16989.00  32768.00      0.00       3  perf_experiment

# Time        UID       PID    %usr %system  %guest   %wait    %CPU   CPU  minflt/s  majflt/s     VSZ     RSS   %MEM   kB_rd/s   kB_wr/s kB_ccwr/s iodelay  Command
08:33:27 AM  1006    220745   94.00    3.00    0.00    0.00   97.00    36    102.00      0.00  749796  675008   0.26  17068.00  32768.00      0.00       2  perf_experiment

# Time        UID       PID    %usr %system  %guest   %wait    %CPU   CPU  minflt/s  majflt/s     VSZ     RSS   %MEM   kB_rd/s   kB_wr/s kB_ccwr/s iodelay  Command
08:33:28 AM  1006    220745   95.00    3.00    0.00    0.00   98.00    36    227.00      0.00  750428  675708   0.26  14917.50  32768.00      0.00       3  perf_experiment

# Time        UID       PID    %usr %system  %guest   %wait    %CPU   CPU  minflt/s  majflt/s     VSZ     RSS   %MEM   kB_rd/s   kB_wr/s kB_ccwr/s iodelay  Command
08:33:29 AM  1006    220745   86.00    6.00    0.00    0.00   92.00    36   1529.00      0.00  752292  677628   0.26   8042.00  98304.00      0.00       7  perf_experiment

# Time        UID       PID    %usr %system  %guest   %wait    %CPU   CPU  minflt/s  majflt/s     VSZ     RSS   %MEM   kB_rd/s   kB_wr/s kB_ccwr/s iodelay  Command
08:33:30 AM  1006    220745   98.00    3.00    0.00    0.00  101.00    36   4873.00      0.00  752692  677980   0.26  17548.50      0.00      0.00       0  perf_experiment

# Time        UID       PID    %usr %system  %guest   %wait    %CPU   CPU  minflt/s  majflt/s     VSZ     RSS   %MEM   kB_rd/s   kB_wr/s kB_ccwr/s iodelay  Command
08:33:31 AM  1006    220745   93.00    4.00    0.00    0.00   97.00    36  12834.00      0.00  752956  678308   0.26  16953.50  32768.00      0.00       2  perf_experiment

# Time        UID       PID    %usr %system  %guest   %wait    %CPU   CPU  minflt/s  majflt/s     VSZ     RSS   %MEM   kB_rd/s   kB_wr/s kB_ccwr/s iodelay  Command
08:33:32 AM  1006    220745   88.00    5.00    0.00    0.00   93.00    36  11260.00      0.00  754560  679840   0.26   8754.00  98304.00      0.00       8  perf_experiment

# Time        UID       PID    %usr %system  %guest   %wait    %CPU   CPU  minflt/s  majflt/s     VSZ     RSS   %MEM   kB_rd/s   kB_wr/s kB_ccwr/s iodelay  Command
08:33:33 AM  1006    220745   93.00    5.00    0.00    0.00   98.00    36   1718.00      0.00  755440  680720   0.26  14138.50  32768.00      0.00       2  perf_experiment

# Time        UID       PID    %usr %system  %guest   %wait    %CPU   CPU  minflt/s  majflt/s     VSZ     RSS   %MEM   kB_rd/s   kB_wr/s kB_ccwr/s iodelay  Command
08:33:34 AM  1006    220745   95.00    3.00    0.00    0.00   98.00    36   8287.00      0.00  755848  681180   0.26  17199.00  32768.00      0.00       2  perf_experiment

# Time        UID       PID    %usr %system  %guest   %wait    %CPU   CPU  minflt/s  majflt/s     VSZ     RSS   %MEM   kB_rd/s   kB_wr/s kB_ccwr/s iodelay  Command
08:33:35 AM  1006    220745   97.00    3.00    0.00    0.00  100.00    36    238.00      0.00  756240  681528   0.26  17601.50      0.00      0.00       0  perf_experiment

# Time        UID       PID    %usr %system  %guest   %wait    %CPU   CPU  minflt/s  majflt/s     VSZ     RSS   %MEM   kB_rd/s   kB_wr/s kB_ccwr/s iodelay  Command
08:33:36 AM  1006    220745   84.00    6.00    0.00    0.00   90.00    36  27758.00      0.00  758360  683504   0.26   5382.50 131072.00      0.00      10  perf_experiment

# Time        UID       PID    %usr %system  %guest   %wait    %CPU   CPU  minflt/s  majflt/s     VSZ     RSS   %MEM   kB_rd/s   kB_wr/s kB_ccwr/s iodelay  Command
08:33:37 AM  1006    220745   95.00    3.00    0.00    0.00   98.00    36     91.00      0.00  758756  683900   0.26  17021.50  32768.00      0.00       2  perf_experiment

# Time        UID       PID    %usr %system  %guest   %wait    %CPU   CPU  minflt/s  majflt/s     VSZ     RSS   %MEM   kB_rd/s   kB_wr/s kB_ccwr/s iodelay  Command
08:33:38 AM  1006    220745   95.00    4.00    0.00    0.00   99.00    36     86.00      0.00  759004  684168   0.26  17723.00      0.00      0.00       0  perf_experiment

# Time        UID       PID    %usr %system  %guest   %wait    %CPU   CPU  minflt/s  majflt/s     VSZ     RSS   %MEM   kB_rd/s   kB_wr/s kB_ccwr/s iodelay  Command
08:33:39 AM  1006    220745   90.00    6.00    0.00    0.00   96.00    36    258.00      0.00  759892  685168   0.26  13532.00  65536.00      0.00       5  perf_experiment

# Time        UID       PID    %usr %system  %guest   %wait    %CPU   CPU  minflt/s  majflt/s     VSZ     RSS   %MEM   kB_rd/s   kB_wr/s kB_ccwr/s iodelay  Command
08:33:40 AM  1006    220745   87.00    5.00    0.00    0.00   92.00    36  14815.00      0.00  761652  686880   0.26   8976.00  98304.00      0.00       7  perf_experiment

# Time        UID       PID    %usr %system  %guest   %wait    %CPU   CPU  minflt/s  majflt/s     VSZ     RSS   %MEM   kB_rd/s   kB_wr/s kB_ccwr/s iodelay  Command
08:33:41 AM  1006    220745   98.00    3.00    0.00    0.00  101.00    36     83.00      0.00  761916  687184   0.26  17758.00      0.00      0.00       0  perf_experiment

# Time        UID       PID    %usr %system  %guest   %wait    %CPU   CPU  minflt/s  majflt/s     VSZ     RSS   %MEM   kB_rd/s   kB_wr/s kB_ccwr/s iodelay  Command
08:33:42 AM  1006    220745   96.00    2.00    0.00    0.00   98.00    36     92.00      0.00  762184  687412   0.26  17139.50  32768.00      0.00       2  perf_experiment

# Time        UID       PID    %usr %system  %guest   %wait    %CPU   CPU  minflt/s  majflt/s     VSZ     RSS   %MEM   kB_rd/s   kB_wr/s kB_ccwr/s iodelay  Command
08:33:43 AM  1006    220745   87.00    5.00    0.00    0.00   92.00    36    543.00      0.00  764040  689320   0.26   7427.50  98304.00      0.00       8  perf_experiment

# Time        UID       PID    %usr %system  %guest   %wait    %CPU   CPU  minflt/s  majflt/s     VSZ     RSS   %MEM   kB_rd/s   kB_wr/s kB_ccwr/s iodelay  Command
08:33:44 AM  1006    220745   94.00    3.00    0.00    0.00   97.00    36   1974.00      0.00  764796  690092   0.26  15294.50  32768.00      0.00       2  perf_experiment

# Time        UID       PID    %usr %system  %guest   %wait    %CPU   CPU  minflt/s  majflt/s     VSZ     RSS   %MEM   kB_rd/s   kB_wr/s kB_ccwr/s iodelay  Command