5,Faster,1,5000000,2500000,512,2048,99695,5000000


resource usage stats

Linux 5.4.0-42-generic (arcon1) 	10/25/2020 	_x86_64_	(64 CPU)

# Time        UID       PID    %usr %system  %guest   %wait    %CPU   CPU  minflt/s  majflt/s     VSZ     RSS   %MEM   kB_rd/s   kB_wr/s kB_ccwr/s iodelay  Command
01:24:39 PM  1006    221880   68.00   31.00    0.00    0.00   99.00    26 145378.00      0.00  661624  586692   0.22      0.00      4.00      0.00       0  perf_experiment

# Time        UID       PID    %usr %system  %guest   %wait    %CPU   CPU  minflt/s  majflt/s     VSZ     RSS   %MEM   kB_rd/s   kB_wr/s kB_ccwr/s iodelay  Command
01:24:40 PM  1006    221880   79.00   17.00    0.00    0.00   96.00    26  43015.00      0.00  666220  591308   0.22      0.00  65536.00      0.00       4  perf_experiment

# Time        UID       PID    %usr %system  %guest   %wait    %CPU   CPU  minflt/s  majflt/s     VSZ     RSS   %MEM   kB_rd/s   kB_wr/s kB_ccwr/s iodelay  Command
01:24:41 PM  1006    221880   75.00   11.00    0.00    0.00   86.00    26  50871.00      0.00  670312  595400   0.23      0.00 196608.00      0.00      13  perf_experiment

# Time        UID       PID    %usr %system  %guest   %wait    %CPU   CPU  minflt/s  majflt/s     VSZ     RSS   %MEM   kB_rd/s   kB_wr/s kB_ccwr/s iodelay  Command
01:24:42 PM  1006    221880   76.00   12.00    0.00    0.00   88.00    26  53009.00      0.00  674404  599544   0.23      0.00 196608.00      0.00      11  perf_experiment

# Time        UID       PID    %usr %system  %guest   %wait    %CPU   CPU  minflt/s  majflt/s     VSZ     RSS   %MEM   kB_rd/s   kB_wr/s kB_ccwr/s iodelay  Command
01:24:43 PM  1006    221880   76.00   12.00    0.00    0.00   88.00    26  51732.00      0.00  678496  603584   0.23      0.00 163840.00      0.00      14  perf_experiment

# Time        UID       PID    %usr %system  %guest   %wait    %CPU   CPU  minflt/s  majflt/s     VSZ     RSS   %MEM   kB_rd/s   kB_wr/s kB_ccwr/s iodelay  Command
01:24:44 PM  1006    221880   73.00   14.00    0.00    0.00   87.00    26  62133.00      0.00  682464  607552   0.23      0.00 196608.00      0.00      13  perf_experiment

# Time        UID       PID    %usr %system  %guest   %wait    %CPU   CPU  minflt/s  majflt/s     VSZ     RSS   %MEM   kB_rd/s   kB_wr/s kB_ccwr/s iodelay  Command
01:24:45 PM  1006    221880   80.00   10.00    0.00    0.00   90.00    26  54387.00      0.00  686680  611768   0.23      0.00 163840.00      0.00      10  perf_experiment

# Time        UID       PID    %usr %system  %guest   %wait    %CPU   CPU  minflt/s  majflt/s     VSZ     RSS   %MEM   kB_rd/s   kB_wr/s kB_ccwr/s iodelay  Command
01:24:46 PM  1006    221880   76.00   11.00    0.00    0.00   87.00    26  52205.00      0.00  690648  615732   0.23      0.00 196608.00      0.00      13  perf_experiment

# Time        UID       PID    %usr %system  %guest   %wait    %CPU   CPU  minflt/s  majflt/s     VSZ     RSS   %MEM   kB_rd/s   kB_wr/s kB_ccwr/s iodelay  Command
01:24:47 PM  1006    221880   72.00   14.00    0.00    0.00   86.00    26  38524.00      0.00  694616  619704   0.23      0.00 196608.00      0.00      12  perf_experiment

# Time        UID       PID    %usr %system  %guest   %wait    %CPU   CPU  minflt/s  majflt/s     VSZ     RSS   %MEM   kB_rd/s   kB_wr/s kB_ccwr/s iodelay  Command
01:24:48 PM  1006    221880   79.00   12.00    0.00    0.00   91.00    26  31459.00      0.00  698832  623920   0.24      0.00 163840.00      0.00      11  perf_experiment

# Time        UID       PID    %usr %system  %guest   %wait    %CPU   CPU  minflt/s  majflt/s     VSZ     RSS   %MEM   kB_rd/s   kB_wr/s kB_ccwr/s iodelay  Command
01:24:49 PM  1006    221880   72.00   14.00    0.00    0.00   86.00    26  17048.00      0.00  702800  627888   0.24      0.00 196608.00      0.00      13  perf_experiment

# Time        UID       PID    %usr %system  %guest   %wait    %CPU   CPU  minflt/s  majflt/s     VSZ     RSS   %MEM   kB_rd/s   kB_wr/s kB_ccwr/s iodelay  Command
01:24:50 PM  1006    221880   74.00   12.00    0.00    0.00   86.00    26  22539.00      0.00  706768  631852   0.24      0.00 196608.00      0.00      14  perf_experiment

# Time        UID       PID    %usr %system  %guest   %wait    %CPU   CPU  minflt/s  majflt/s     VSZ     RSS   %MEM   kB_rd/s   kB_wr/s kB_ccwr/s iodelay  Command
01:24:51 PM  1006    221880   78.00   12.00    0.00    0.00   90.00    26  29159.00      0.00  710984  636072   0.24      0.00 163840.00      0.00      11  perf_experiment

# Time        UID       PID    %usr %system  %guest   %wait    %CPU   CPU  minflt/s  majflt/s     VSZ     RSS   %MEM   kB_rd/s   kB_wr/s kB_ccwr/s iodelay  Command
01:24:52 PM  1006    221880   74.00   13.00    0.00    0.00   87.00    26  29874.00      0.00  714952  640036   0.24      0.00 196608.00      0.00      13  perf_experiment

# Time        UID       PID    %usr %system  %guest   %wait    %CPU   CPU  minflt/s  majflt/s     VSZ     RSS   %MEM   kB_rd/s   kB_wr/s kB_ccwr/s iodelay  Command
01:24:53 PM  1006    221880   76.00   11.00    0.00    0.00   87.00    26  11728.00      0.00  719044  644132   0.24      0.00 196608.00      0.00      11  perf_experiment

# Time        UID       PID    %usr %system  %guest   %wait    %CPU   CPU  minflt/s  majflt/s     VSZ     RSS   %MEM   kB_rd/s   kB_wr/s kB_ccwr/s iodelay  Command
01:24:54 PM  1006    221880   76.00   12.00    0.00    0.00   88.00    26   7111.00      0.00  723136  648224   0.25      0.00 163840.00      0.00      13  perf_experiment

# Time        UID       PID    %usr %system  %guest   %wait    %CPU   CPU  minflt/s  majflt/s     VSZ     RSS   %MEM   kB_rd/s   kB_wr/s kB_ccwr/s iodelay  Command
01:24:55 PM  1006    221880   75.00   12.00    0.00    0.00   87.00    26  10389.00      0.00  727104  652192   0.25      0.00 196608.00      0.00      13  perf_experiment

# Time        UID       PID    %usr %system  %guest   %wait    %CPU   CPU  minflt/s  majflt/s     VSZ     RSS   %MEM   kB_rd/s   kB_wr/s kB_ccwr/s iodelay  Command
01:24:56 PM  1006    221880   79.00    8.00    0.00    0.00   87.00    26  29773.00      0.00  731196  656288   0.25      0.00 163840.00      0.00      13  perf_experiment

# Time        UID       PID    %usr %system  %guest   %wait    %CPU   CPU  minflt/s  majflt/s     VSZ     RSS   %MEM   kB_rd/s   kB_wr/s kB_ccwr/s iodelay  Command
01:24:57 PM  1006    221880   73.00   14.00    0.00    0.00   87.00    26  44310.00      0.00  735164  660252   0.25      0.00 196608.00      0.00      12  perf_experiment

# Time        UID       PID    %usr %system  %guest   %wait    %CPU   CPU  minflt/s  majflt/s     VSZ     RSS   %MEM   kB_rd/s   kB_wr/s kB_ccwr/s iodelay  Command
01:24:58 PM  1006    221880   77.00   12.00    0.00    0.00   89.00    26   6837.00      0.00  739256  664344   0.25      0.00 163840.00      0.00      12  perf_experiment

# Time        UID       PID    %usr %system  %guest   %wait    %CPU   CPU  minflt/s  majflt/s     VSZ     RSS   %MEM   kB_rd/s   kB_wr/s kB_ccwr/s iodelay  Command
01:24:59 PM  1006    221880   74.00   13.00    0.00    0.00   87.00    26   1181.00      0.00  743224  668308   0.25      0.00 196608.00      0.00      13  perf_experiment

# Time        UID       PID    %usr %system  %guest   %wait    %CPU   CPU  minflt/s  majflt/s     VSZ     RSS   %MEM   kB_rd/s   kB_wr/s kB_ccwr/s iodelay  Command
01:25:00 PM  1006    221880   73.00   14.00    0.00    0.00   87.00    26   6298.00      0.00  747192  672280   0.25      0.00 196608.00      0.00      14  perf_experiment

# Time        UID       PID    %usr %system  %guest   %wait    %CPU   CPU  minflt/s  majflt/s     VSZ     RSS   %MEM   kB_rd/s   kB_wr/s kB_ccwr/s iodelay  Command
01:25:01 PM  1006    221880   76.00   12.00    0.00    0.00   88.00    26   7252.00      0.00  751160  676248   0.26      0.00 163840.00      0.00      11  perf_experiment

# Time        UID       PID    %usr %system  %guest   %wait    %CPU   CPU  minflt/s  majflt/s     VSZ     RSS   %MEM   kB_rd/s   kB_wr/s kB_ccwr/s iodelay  Command
01:25:02 PM  1006    221880   77.00   10.00    0.00    0.00   87.00    26   9365.00      0.00  755128  680212   0.26      0.00 196608.00      0.00      14  perf_experiment

# Time        UID       PID    %usr %system  %guest   %wait    %CPU   CPU  minflt/s  majflt/s     VSZ     RSS   %MEM   kB_rd/s   kB_wr/s kB_ccwr/s iodelay  Command
01:25:03 PM  1006    221880   79.00   11.00    0.00    0.00   90.00    26  36040.00      0.00  759096  684184   0.26      0.00 163840.00      0.00      10  perf_experiment

# Time        UID       PID    %usr %system  %guest   %wait    %CPU   CPU  minflt/s  majflt/s     VSZ     RSS   %MEM   kB_rd/s   kB_wr/s kB_ccwr/s iodelay  Command
01:25:04 PM  1006    221880   73.00   13.00    0.00    0.00   86.00    26  27300.00      0.00  763064  688144   0.26      0.00 196608.00      0.00      14  perf_experiment

# Time        UID       PID    %usr %system  %guest   %wait    %CPU   CPU  minflt/s  majflt/s     VSZ     RSS   %MEM   kB_rd/s   kB_wr/s kB_ccwr/s iodelay  Command
01:25:05 PM  1006    221880   76.00   12.00    0.00    0.00   88.00    26   5774.00      0.00  767032  692116   0.26      0.00 163840.00      0.00      12  perf_experiment

# Time        UID       PID    %usr %system  %guest   %wait    %CPU   CPU  minflt/s  majflt/s     VSZ     RSS   %MEM   kB_rd/s   kB_wr/s kB_ccwr/s iodelay  Command
01:25:06 PM  1006    221880   77.00    9.00    0.00    0.00   86.00    26  15991.00      0.00  771000  696088   0.26      0.00 196608.00      0.00      14  perf_experiment

# Time        UID       PID    %usr %system  %guest   %wait    %CPU   CPU  minflt/s  majflt/s     VSZ     RSS   %MEM   kB_rd/s   kB_wr/s kB_ccwr/s iodelay  Command
01:25:07 PM  1006    221880   78.00   11.00    0.00    0.00   89.00    26   1213.00      0.00  774968  699932   0.27      0.00 163840.00      0.00      11  perf_experiment

# Time        UID       PID    %usr %system  %guest   %wait    %CPU   CPU  minflt/s  majflt/s     VSZ     RSS   %MEM   kB_rd/s   kB_wr/s kB_ccwr/s iodelay  Command
01:25:08 PM  1006    221880   35.00   62.00    0.00    0.00   97.00    26    485.00      0.00  775352  700516   0.27  17020.00  32768.00      0.00       2  perf_experiment

# Time        UID       PID    %usr %system  %guest   %wait    %CPU   CPU  minflt/s  majflt/s     VSZ     RSS   %MEM   kB_rd/s   kB_wr/s kB_ccwr/s iodelay  Command
01:25:09 PM  1006    221880   45.00   56.00    0.00    0.00  101.00    26    210.00      0.00  775576  700744   0.27  17614.00      0.00      0.00       0  perf_experiment

# Time        UID       PID    %usr %system  %guest   %wait    %CPU   CPU  minflt/s  majflt/s     VSZ     RSS   %MEM   kB_rd/s   kB_wr/s kB_ccwr/s iodelay  Command
01:25:10 PM  1006    221880   35.00   64.00    0.00    0.00   99.00    26     63.00      0.00  775800  700980   0.27  17584.50      0.00      0.00       0  perf_experiment

# Time        UID       PID    %usr %system  %guest   %wait    %CPU   CPU  minflt/s  majflt/s     VSZ     RSS   %MEM   kB_rd/s   kB_wr/s kB_ccwr/s iodelay  Command
01:25:11 PM  1006    221880   39.00   59.00    0.00    0.00   98.00    26    956.00      0.00  776036  701268   0.27  16994.00  32768.00      0.00       2  perf_experiment

# Time        UID       PID    %usr %system  %guest   %wait    %CPU   CPU  minflt/s  majflt/s     VSZ     RSS   %MEM   kB_rd/s   kB_wr/s kB_ccwr/s iodelay  Command
01:25:12 PM  1006    221880   42.00   58.00    0.00    0.00  100.00    26   2896.00      0.00  776272  701524   0.27  17435.00      0.00      0.00       0  perf_experiment

# Time        UID       PID    %usr %system  %guest   %wait    %CPU   CPU  minflt/s  majflt/s     VSZ     RSS   %MEM   kB_rd/s   kB_wr/s kB_ccwr/s iodelay  Command
01:25:13 PM  1006    221880   38.00   62.00    0.00    0.00  100.00    26   2893.00      0.00  776504  701768   0.27  17424.50      0.00      0.00       0  perf_experiment

# Time        UID       PID    %usr %system  %guest   %wait    %CPU   CPU  minflt/s  majflt/s     VSZ     RSS   %MEM   kB_rd/s   kB_wr/s kB_ccwr/s iodelay  Command
01:25:14 PM  1006    221880   41.00   58.00    0.00    0.00   99.00    26  11015.00      0.00  776752  702024   0.27  16825.00  32768.00      0.00       3  perf_experiment

# Time        UID       PID    %usr %system  %guest   %wait    %CPU   CPU  minflt/s  majflt/s     VSZ     RSS   %MEM   kB_rd/s   kB_wr/s kB_ccwr/s iodelay  Command
01:25:15 PM  1006    221880   41.00   58.00    0.00    0.00   99.00    26   2899.00      0.00  776988  702272   0.27  17461.50      0.00      0.00       0  perf_experiment

# Time        UID       PID    %usr %system  %guest   %wait    %CPU   CPU  minflt/s  majflt/s     VSZ     RSS   %MEM   kB_rd/s   kB_wr/s kB_ccwr/s iodelay  Command
01:25:16 PM  1006    221880   39.00   61.00    0.00    0.00  100.00    26   2896.00      0.00  777340  702520   0.27  17439.50      0.00      0.00       0  perf_experiment

# Time        UID       PID    %usr %system  %guest   %wait    %CPU   CPU  minflt/s  majflt/s     VSZ     RSS   %MEM   kB_rd/s   kB_wr/s kB_ccwr/s iodelay  Command
01:25:17 PM  1006    221880   38.00   59.00    0.00    0.00   97.00    26   9742.00      0.00  777588  702768   0.27  16951.00  32768.00      0.00       2  perf_experiment

# Time        UID       PID    %usr %system  %guest   %wait    %CPU   CPU  minflt/s  majflt/s     VSZ     RSS   %MEM   kB_rd/s   kB_wr/s kB_ccwr/s iodelay  Command
01:25:18 PM  1006    221880   40.00   61.00    0.00    0.00  101.00    26    603.00      0.00  777824  702988   0.27  17414.00      0.00      0.00       0  perf_experiment

# Time        UID       PID    %usr %system  %guest   %wait    %CPU   CPU  minflt/s  majflt/s     VSZ     RSS   %MEM   kB_rd/s   kB_wr/s kB_ccwr/s iodelay  Command
01:25:19 PM  1006    221880   34.00   66.00    0.00    0.00  100.00    26     63.00      0.00  778072  703236   0.27  17551.50      0.00      0.00       0  perf_experiment

# Time        UID       PID    %usr %system  %guest   %wait    %CPU   CPU  minflt/s  majflt/s     VSZ     RSS   %MEM   kB_rd/s   kB_wr/s kB_ccwr/s iodelay  Command
01:25:20 PM  1006    221880   47.00   51.00    0.00    0.00   98.00    26   8257.00      0.00  778296  703468   0.27  16898.00  32768.00      0.00       2  perf_experiment

# Time        UID       PID    %usr %system  %guest   %wait    %CPU   CPU  minflt/s  majflt/s     VSZ     RSS   %MEM   kB_rd/s   kB_wr/s kB_ccwr/s iodelay  Command
01:25:21 PM  1006    221880   40.00   60.00    0.00    0.00  100.00    26     60.00      0.00  778528  703692   0.27  17408.00      0.00      0.00       0  perf_experiment

# Time        UID       PID    %usr %system  %guest   %wait    %CPU   CPU  minflt/s  majflt/s     VSZ     RSS   %MEM   kB_rd/s   kB_wr/s kB_ccwr/s iodelay  Command
01:25:22 PM  1006    221880   38.00   62.00    0.00    0.00  100.00    26     64.00      0.00  778768  703944   0.27  17537.00      0.00      0.00       0  perf_experiment

# Time        UID       PID    %usr %system  %guest   %wait    %CPU   CPU  minflt/s  majflt/s     VSZ     RSS   %MEM   kB_rd/s   kB_wr/s kB_ccwr/s iodelay  Command
01:25:23 PM  1006    221880   44.00   54.00    0.00    0.00   98.00    26   9985.00      0.00  779004  704260   0.27  16880.50  32768.00      0.00       2  perf_experiment

# Time        UID       PID    %usr %system  %guest   %wait    %CPU   CPU  minflt/s  majflt/s     VSZ     RSS   %MEM   kB_rd/s   kB_wr/s kB_ccwr/s iodelay  Command
01:25:24 PM  1006    221880   39.00   61.00    0.00    0.00  100.00    26   2893.00      0.00  779236  704516   0.27  17416.00      0.00      0.00       0  perf_experiment

# Time        UID       PID    %usr %system  %guest   %wait    %CPU   CPU  minflt/s  majflt/s     VSZ     RSS   %MEM   kB_rd/s   kB_wr/s kB_ccwr/s iodelay  Command
01:25:25 PM  1006    221880   35.00   64.00    0.00    0.00   99.00    26   2948.00      0.00  779580  704768   0.27  17607.50      0.00      0.00       0  perf_experiment

# Time        UID       PID    %usr %system  %guest   %wait    %CPU   CPU  minflt/s  majflt/s     VSZ     RSS   %MEM   kB_rd/s   kB_wr/s kB_ccwr/s iodelay  Command
01:25:26 PM  1006    221880   39.00   60.00    0.00    0.00   99.00    26   9026.00      0.00  779816  704988   0.27  16941.50  32768.00      0.00       2  perf_experiment

# Time        UID       PID    %usr %system  %guest   %wait    %CPU   CPU  minflt/s  majflt/s     VSZ     RSS   %MEM   kB_rd/s   kB_wr/s kB_ccwr/s iodelay  Command
01:25:27 PM  1006    221880   37.00   63.00    0.00    0.00  100.00    26     64.00      0.00  780032  705212   0.27  17438.50      0.00      0.00       0  perf_experiment

# Time        UID       PID    %usr %system  %guest   %wait    %CPU   CPU  minflt/s  majflt/s     VSZ     RSS   %MEM   kB_rd/s   kB_wr/s kB_ccwr/s iodelay  Command
01:25:28 PM  1006    221880   41.00   59.00    0.00    0.00  100.00    26     65.00      0.00  780268  705448   0.27  17618.00      0.00      0.00       0  perf_experiment

# Time        UID       PID    %usr %system  %guest   %wait    %CPU   CPU  minflt/s  majflt/s     VSZ     RSS   %MEM   kB_rd/s   kB_wr/s kB_ccwr/s iodelay  Command
01:25:29 PM  1006    221880   37.00   60.00    0.00    0.00   97.00    26   8514.00      0.00  780504  705776   0.27  16856.50  32768.00      0.00       2  perf_experiment

# Time        UID       PID    %usr %system  %guest   %wait    %CPU   CPU  minflt/s  majflt/s     VSZ     RSS   %MEM   kB_rd/s   kB_wr/s kB_ccwr/s iodelay  Command
01:25:30 PM  1006    221880   46.00   54.00    0.00    0.00  100.00    26    352.00      0.00  780744  705924   0.27  17409.00      0.00      0.00       0  perf_experiment

# Time        UID       PID    %usr %system  %guest   %wait    %CPU   CPU  minflt/s  majflt/s     VSZ     RSS   %MEM   kB_rd/s   kB_wr/s kB_ccwr/s iodelay  Command
01:25:31 PM  1006    221880   37.00   64.00    0.00    0.00  101.00    26     65.00      0.00  781112  706152   0.27  17546.00      0.00      0.00       0  perf_experiment

# Time        UID       PID    %usr %system  %guest   %wait    %CPU   CPU  minflt/s  majflt/s     VSZ     RSS   %MEM   kB_rd/s   kB_wr/s kB_ccwr/s iodelay  Command
01:25:32 PM  1006    221880   44.00   53.00    0.00    0.00   97.00    26   8254.00      0.00  781344  706516   0.27  16941.00  32768.00      0.00       2  perf_experiment

# Time        UID       PID    %usr %system  %guest   %wait    %CPU   CPU  minflt/s  majflt/s     VSZ     RSS   %MEM   kB_rd/s   kB_wr/s kB_ccwr/s iodelay  Command
01:25:33 PM  1006    221880   38.00   62.00    0.00    0.00  100.00    26     65.00      0.00  781580  706756   0.27  17428.50      0.00      0.00       0  perf_experiment

# Time        UID       PID    %usr %system  %guest   %wait    %CPU   CPU  minflt/s  majflt/s     VSZ     RSS   %MEM   kB_rd/s   kB_wr/s kB_ccwr/s iodelay  Command
01:25:34 PM  1006    221880   42.00   58.00    0.00    0.00  100.00    26   1113.00      0.00  781820  707016   0.27  17575.00      0.00      0.00       0  perf_experiment

# Time        UID       PID    %usr %system  %guest   %wait    %CPU   CPU  minflt/s  majflt/s     VSZ     RSS   %MEM   kB_rd/s   kB_wr/s kB_ccwr/s iodelay  Command
01:25:35 PM  1006    221880   41.00   58.00    0.00    0.00   99.00    26  11009.00      0.00  782036  707260   0.27  16914.50  32768.00      0.00       2  perf_experiment

# Time        UID       PID    %usr %system  %guest   %wait    %CPU   CPU  minflt/s  majflt/s     VSZ     RSS   %MEM   kB_rd/s   kB_wr/s kB_ccwr/s iodelay  Command
01:25:36 PM  1006    221880   36.00   64.00    0.00    0.00  100.00    26   2904.00      0.00  782268  707512   0.27  17460.50      0.00      0.00       0  perf_experiment

# Time        UID       PID    %usr %system  %guest   %wait    %CPU   CPU  minflt/s  majflt/s     VSZ     RSS   %MEM   kB_rd/s   kB_wr/s kB_ccwr/s iodelay  Command
01:25:37 PM  1006    221880   44.00   53.00    0.00    0.00   97.00    26  10906.00      0.00  782500  707760   0.27  16922.00  32768.00      0.00       3  perf_experiment

# Time        UID       PID    %usr %system  %guest   %wait    %CPU   CPU  minflt/s  majflt/s     VSZ     RSS   %MEM   kB_rd/s   kB_wr/s kB_ccwr/s iodelay  Command
01:25:38 PM  1006    221880   40.00   60.00    0.00    0.00  100.00    26     62.00      0.00  782740  707912   0.27  17514.50      0.00      0.00       0  perf_experiment

# Time        UID       PID    %usr %system  %guest   %wait    %CPU   CPU  minflt/s  majflt/s     VSZ     RSS   %MEM   kB_rd/s   kB_wr/s kB_ccwr/s iodelay  Command
01:25:39 PM  1006    221880   43.00   57.00    0.00    0.00  100.00    26     90.00      0.00  782988  708152   0.27  17460.00      0.00      0.00       0  perf_experiment

# Time        UID       PID    %usr %system  %guest   %wait    %CPU   CPU  minflt/s  majflt/s     VSZ     RSS   %MEM   kB_rd/s   kB_wr/s kB_ccwr/s iodelay  Command
01:25:40 PM  1006    221880   41.00   57.00    0.00    0.00   98.00    26   8255.00      0.00  783344  708508   0.27  16895.50  32768.00      0.00       2  perf_experiment

# Time        UID       PID    %usr %system  %guest   %wait    %CPU   CPU  minflt/s  majflt/s     VSZ     RSS   %MEM   kB_rd/s   kB_wr/s kB_ccwr/s iodelay  Command
01:25:41 PM  1006    221880   43.00   57.00    0.00    0.00  100.00    26     61.00      0.00  783580  708760   0.27  17456.50      0.00      0.00       0  perf_experiment

# Time        UID       PID    %usr %system  %guest   %wait    %CPU   CPU  minflt/s  majflt/s     VSZ     RSS   %MEM   kB_rd/s   kB_wr/s kB_ccwr/s iodelay  Command
01:25:42 PM  1006    221880   48.00   52.00    0.00    0.00  100.00    26     94.00      0.00  783812  708976   0.27  17505.50      0.00      0.00       0  perf_experiment

# Time        UID       PID    %usr %system  %guest   %wait    %CPU   CPU  minflt/s  majflt/s     VSZ     RSS   %MEM   kB_rd/s   kB_wr/s kB_ccwr/s iodelay  Command
01:25:43 PM  1006    221880   40.00   58.00    0.00    0.00   98.00    26   8292.00      0.00  784056  709224   0.27  16924.50  32768.00      0.00       2  perf_experiment

# Time        UID       PID    %usr %system  %guest   %wait    %CPU   CPU  minflt/s  majflt/s     VSZ     RSS   %MEM   kB_rd/s   kB_wr/s kB_ccwr/s iodelay  Command
01:25:44 PM  1006    221880   35.00   65.00    0.00    0.00  100.00    26     97.00      0.00  784304  709484   0.27  17460.00      0.00      0.00       0  perf_experiment

# Time        UID       PID    %usr %system  %guest   %wait    %CPU   CPU  minflt/s  majflt/s     VSZ     RSS   %MEM   kB_rd/s   kB_wr/s kB_ccwr/s iodelay  Command
01:25:45 PM  1006    221880   41.00   58.00    0.00    0.00   99.00    26    611.00      0.00  784536  709716   0.27  17509.50      0.00      0.00       0  perf_experiment

# Time        UID       PID    %usr %system  %guest   %wait    %CPU   CPU  minflt/s  majflt/s     VSZ     RSS   %MEM   kB_rd/s   kB_wr/s kB_ccwr/s iodelay  Command
01:25:46 PM  1006    221880   42.00   57.00    0.00    0.00   99.00    26   8306.00      0.00  784780  709952   0.27  16742.00  32768.00      0.00       2  perf_experiment

# Time        UID       PID    %usr %system  %guest   %wait    %CPU   CPU  minflt/s  majflt/s     VSZ     RSS   %MEM   kB_rd/s   kB_wr/s kB_ccwr/s iodelay  Command
01:25:47 PM  1006    221880   38.00   62.00    0.00    0.00  100.00    26    140.00      0.00  785016  710188   0.27  17545.50      0.00      0.00       0  perf_experiment

# Time        UID       PID    %usr %system  %guest   %wait    %CPU   CPU  minflt/s  majflt/s     VSZ     RSS   %MEM   kB_rd/s   kB_wr/s kB_ccwr/s iodelay  Command
01:25:48 PM  1006    221880   40.00   59.00    0.00    0.00   99.00    26    120.00      0.00  785248  710440   0.27  17484.50      0.00      0.00       0  perf_experiment

# Time        UID       PID    %usr %system  %guest   %wait    %CPU   CPU  minflt/s  majflt/s     VSZ     RSS   %MEM   kB_rd/s   kB_wr/s kB_ccwr/s iodelay  Command
01:25:49 PM  1006    221880   44.00   54.00    0.00    0.00   98.00    26   8283.00      0.00  785488  710664   0.27  16836.50  32768.00      0.00       2  perf_experiment

# Time        UID       PID    %usr %system  %guest   %wait    %CPU   CPU  minflt/s  majflt/s     VSZ     RSS   %MEM   kB_rd/s   kB_wr/s kB_ccwr/s iodelay  Command
01:25:50 PM  1006    221880   38.00   62.00    0.00    0.00  100.00    26     88.00      0.00  785832  711004   0.27  17536.50      0.00      0.00       0  perf_experiment

# Time        UID       PID    %usr %system  %guest   %wait    %CPU   CPU  minflt/s  majflt/s     VSZ     RSS   %MEM   kB_rd/s   kB_wr/s kB_ccwr/s iodelay  Command
01:25:51 PM  1006    221880   43.00   57.00    0.00    0.00  100.00    26     65.00      0.00  786052  711232   0.27  17513.50      0.00      0.00       0  perf_experiment

# Time        UID       PID    %usr %system  %guest   %wait    %CPU   CPU  minflt/s  majflt/s     VSZ     RSS   %MEM   kB_rd/s   kB_wr/s kB_ccwr/s iodelay  Command
01:25:52 PM  1006    221880   43.00   55.00    0.00    0.00   98.00    26   8267.00      0.00  786296  711460   0.27  16931.00  32768.00      0.00       3  perf_experiment

# Time        UID       PID    %usr %system  %guest   %wait    %CPU   CPU  minflt/s  majflt/s     VSZ     RSS   %MEM   kB_rd/s   kB_wr/s kB_ccwr/s iodelay  Command
01:25:53 PM  1006    221880   41.00   60.00    0.00    0.00  101.00    26     67.00      0.00  786532  711712   0.27  17513.00      0.00      0.00       0  perf_experiment

# Time        UID       PID    %usr %system  %guest   %wait    %CPU   CPU  minflt/s  majflt/s     VSZ     RSS   %MEM   kB_rd/s   kB_wr/s kB_ccwr/s iodelay  Command
01:25:54 PM  1006    221880   33.00   66.00    0.00    0.00   99.00    26    103.00      0.00  786768  711948   0.27  17559.00      0.00      0.00       0  perf_experiment

# Time        UID       PID    %usr %system  %guest   %wait    %CPU   CPU  minflt/s  majflt/s     VSZ     RSS   %MEM   kB_rd/s   kB_wr/s kB_ccwr/s iodelay  Command
01:25:55 PM  1006    221880   39.00   59.00    0.00    0.00   98.00    26   8254.00      0.00  787008  712176   0.27  16900.50  32768.00      0.00       2  perf_experiment

# Time        UID       PID    %usr %system  %guest   %wait    %CPU   CPU  minflt/s  majflt/s     VSZ     RSS   %MEM   kB_rd/s   kB_wr/s kB_ccwr/s iodelay  Command
01:25:56 PM  1006    221880   43.00   57.00    0.00    0.00  100.00    26     66.00      0.00  787244  712296   0.27  17550.00      0.00      0.00       0  perf_experiment

# Time        UID       PID    %usr %system  %guest   %wait    %CPU   CPU  minflt/s  majflt/s     VSZ     RSS   %MEM   kB_rd/s   kB_wr/s kB_ccwr/s iodelay  Command
01:25:57 PM  1006    221880   41.58   57.43    0.00    0.00   99.01    26     90.10      0.00  787580  712760   0.27  17257.92      0.00      0.00       0  perf_experiment

# Time        UID       PID    %usr %system  %guest   %wait    %CPU   CPU  minflt/s  majflt/s     VSZ     RSS   %MEM   kB_rd/s   kB_wr/s kB_ccwr/s iodelay  Command
01:25:58 PM  1006    221880   43.00   55.00    0.00    0.00   98.00    26   8291.00      0.00  787812  712992   0.27  16936.00  32768.00      0.00       2  perf_experiment

# Time        UID       PID    %usr %system  %guest   %wait    %CPU   CPU  minflt/s  majflt/s     VSZ     RSS   %MEM   kB_rd/s   kB_wr/s kB_ccwr/s iodelay  Command
01:25:59 PM  1006    221880   40.00   60.00    0.00    0.00  100.00    26     68.00      0.00  788048  713224   0.27  17639.00      0.00      0.00       0  perf_experiment

# Time        UID       PID    %usr %system  %guest   %wait    %CPU   CPU  minflt/s  majflt/s     VSZ     RSS   %MEM   kB_rd/s   kB_wr/s kB_ccwr/s iodelay  Command
01:26:00 PM  1006    221880   44.00   56.00    0.00    0.00  100.00    26     65.00      0.00  788288  713456   0.27  17407.00      0.00      0.00       0  perf_experiment

# Time        UID       PID    %usr %system  %guest   %wait    %CPU   CPU  minflt/s  majflt/s     VSZ     RSS   %MEM   kB_rd/s   kB_wr/s kB_ccwr/s iodelay  Command
01:26:01 PM  1006    221880   42.00   55.00    0.00    0.00   97.00    26   8252.00      0.00  788516  713696   0.27  16939.00  32768.00      0.00       2  perf_experiment

# Time        UID       PID    %usr %system  %guest   %wait    %CPU   CPU  minflt/s  majflt/s     VSZ     RSS   %MEM   kB_rd/s   kB_wr/s kB_ccwr/s iodelay  Command
01:26:02 PM  1006    221880   43.00   58.00    0.00    0.00  101.00    26     67.00      0.00  788764  713940   0.27  17620.00      0.00      0.00       0  perf_experiment

# Time        UID       PID    %usr %system  %guest   %wait    %CPU   CPU  minflt/s  majflt/s     VSZ     RSS   %MEM   kB_rd/s   kB_wr/s kB_ccwr/s iodelay  Command
01:26:03 PM  1006    221880   35.00   64.00    0.00    0.00   99.00    26     90.00      0.00  788992  714172   0.27  17433.50      0.00      0.00       0  perf_experiment

# Time        UID       PID    %usr %system  %guest   %wait    %CPU   CPU  minflt/s  majflt/s     VSZ     RSS   %MEM   kB_rd/s   kB_wr/s kB_ccwr/s iodelay  Command
01:26:04 PM  1006    221880   39.00   59.00    0.00    0.00   98.00    26   8271.00      0.00  789340  714392   0.27  16989.50  32768.00      0.00       2  perf_experiment

# Time        UID       PID    %usr %system  %guest   %wait    %CPU   CPU  minflt/s  majflt/s     VSZ     RSS   %MEM   kB_rd/s   kB_wr/s kB_ccwr/s iodelay  Command
01:26:05 PM  1006    221880   41.00   60.00    0.00    0.00  101.00    26    142.00      0.00  789580  714744   0.27  17541.00      0.00      0.00       0  perf_experiment

# Time        UID       PID    %usr %system  %guest   %wait    %CPU   CPU  minflt/s  majflt/s     VSZ     RSS   %MEM   kB_rd/s   kB_wr/s kB_ccwr/s iodelay  Command
01:26:06 PM  1006    221880   39.00   61.00    0.00    0.00  100.00    26    146.00      0.00  789808  714988   0.27  17427.00      0.00      0.00       0  perf_experiment

# Time        UID       PID    %usr %system  %guest   %wait    %CPU   CPU  minflt/s  majflt/s     VSZ     RSS   %MEM   kB_rd/s   kB_wr/s kB_ccwr/s iodelay  Command