4,Faster,3,5000000,2500000,512,2048,144862,4141863


resource usage stats

Linux 5.4.0-42-generic (arcon1) 	10/25/2020 	_x86_64_	(64 CPU)

# Time        UID       PID    %usr %system  %guest   %wait    %CPU   CPU  minflt/s  majflt/s     VSZ     RSS   %MEM   kB_rd/s   kB_wr/s kB_ccwr/s iodelay  Command
09:02:18 AM  1006    220820   76.00   23.00    0.00    0.00   99.00     4 144746.00      0.00  659020  584132   0.22      0.00      4.00      0.00       0  perf_experiment

# Time        UID       PID    %usr %system  %guest   %wait    %CPU   CPU  minflt/s  majflt/s     VSZ     RSS   %MEM   kB_rd/s   kB_wr/s kB_ccwr/s iodelay  Command
09:02:19 AM  1006    220820   85.00    7.00    0.00    0.00   92.00     4  42988.00      0.00  660508  585636   0.22      0.00 131072.00      0.00       8  perf_experiment

# Time        UID       PID    %usr %system  %guest   %wait    %CPU   CPU  minflt/s  majflt/s     VSZ     RSS   %MEM   kB_rd/s   kB_wr/s kB_ccwr/s iodelay  Command
09:02:20 AM  1006    220820   81.00    5.00    0.00    0.00   86.00     4  65068.00      0.00  661748  586956   0.22      0.00 229376.00      0.00      13  perf_experiment

# Time        UID       PID    %usr %system  %guest   %wait    %CPU   CPU  minflt/s  majflt/s     VSZ     RSS   %MEM   kB_rd/s   kB_wr/s kB_ccwr/s iodelay  Command
09:02:21 AM  1006    220820   80.00    5.00    0.00    0.00   85.00     4  50433.00      0.00  662988  588168   0.22      0.00 196608.00      0.00      16  perf_experiment

# Time        UID       PID    %usr %system  %guest   %wait    %CPU   CPU  minflt/s  majflt/s     VSZ     RSS   %MEM   kB_rd/s   kB_wr/s kB_ccwr/s iodelay  Command
09:02:22 AM  1006    220820   82.00    5.00    0.00    0.00   87.00     4  56599.00      0.00  664352  589504   0.22      0.00 217343.50      0.00      13  perf_experiment

# Time        UID       PID    %usr %system  %guest   %wait    %CPU   CPU  minflt/s  majflt/s     VSZ     RSS   %MEM   kB_rd/s   kB_wr/s kB_ccwr/s iodelay  Command
09:02:23 AM  1006    220820   81.00    4.00    0.00    0.00   85.00     4  51374.00      0.00  665592  590728   0.22      0.00 208640.50      0.00      14  perf_experiment

# Time        UID       PID    %usr %system  %guest   %wait    %CPU   CPU  minflt/s  majflt/s     VSZ     RSS   %MEM   kB_rd/s   kB_wr/s kB_ccwr/s iodelay  Command
09:02:24 AM  1006    220820   84.00    3.00    0.00    0.00   87.00     4  50551.00      0.00  666844  591972   0.22      0.00 196608.00      0.00      14  perf_experiment

# Time        UID       PID    %usr %system  %guest   %wait    %CPU   CPU  minflt/s  majflt/s     VSZ     RSS   %MEM   kB_rd/s   kB_wr/s kB_ccwr/s iodelay  Command
09:02:25 AM  1006    220820   78.00    5.00    0.00    0.00   83.00     4  35105.00      0.00  668084  593216   0.22      0.00 229376.00      0.00      16  perf_experiment

# Time        UID       PID    %usr %system  %guest   %wait    %CPU   CPU  minflt/s  majflt/s     VSZ     RSS   %MEM   kB_rd/s   kB_wr/s kB_ccwr/s iodelay  Command
09:02:26 AM  1006    220820   81.00    5.00    0.00    0.00   86.00     4  11425.00      0.00  669324  594460   0.23      0.00 196608.00      0.00      15  perf_experiment

# Time        UID       PID    %usr %system  %guest   %wait    %CPU   CPU  minflt/s  majflt/s     VSZ     RSS   %MEM   kB_rd/s   kB_wr/s kB_ccwr/s iodelay  Command
09:02:27 AM  1006    220820   77.00    6.00    0.00    0.00   83.00     4  39743.00      0.00  670564  595784   0.23      0.00 229376.00      0.00      14  perf_experiment

# Time        UID       PID    %usr %system  %guest   %wait    %CPU   CPU  minflt/s  majflt/s     VSZ     RSS   %MEM   kB_rd/s   kB_wr/s kB_ccwr/s iodelay  Command
09:02:28 AM  1006    220820   81.00    5.00    0.00    0.00   86.00     4  42233.00      0.00  671804  597020   0.23      0.00 196608.00      0.00      16  perf_experiment

# Time        UID       PID    %usr %system  %guest   %wait    %CPU   CPU  minflt/s  majflt/s     VSZ     RSS   %MEM   kB_rd/s   kB_wr/s kB_ccwr/s iodelay  Command
09:02:29 AM  1006    220820   82.00    6.00    0.00    0.00   88.00     4    813.00      0.00  673044  598192   0.23   3698.50 163840.00      0.00      12  perf_experiment

# Time        UID       PID    %usr %system  %guest   %wait    %CPU   CPU  minflt/s  majflt/s     VSZ     RSS   %MEM   kB_rd/s   kB_wr/s kB_ccwr/s iodelay  Command
09:02:30 AM  1006    220820   97.00    1.00    0.00    0.00   98.00     4   3254.00      0.00  673044  598252   0.23  17316.50  32768.00      0.00       3  perf_experiment

# Time        UID       PID    %usr %system  %guest   %wait    %CPU   CPU  minflt/s  majflt/s     VSZ     RSS   %MEM   kB_rd/s   kB_wr/s kB_ccwr/s iodelay  Command
09:02:31 AM  1006    220820   98.00    1.00    0.00    0.00   99.00     4   4323.00      0.00  673176  598376   0.23  17975.50      0.00      0.00       0  perf_experiment

# Time        UID       PID    %usr %system  %guest   %wait    %CPU   CPU  minflt/s  majflt/s     VSZ     RSS   %MEM   kB_rd/s   kB_wr/s kB_ccwr/s iodelay  Command
09:02:32 AM  1006    220820   89.00    5.00    0.00    0.00   94.00     4  34400.00      0.00  673552  598752   0.23  12269.50  98304.00      0.00       6  perf_experiment

# Time        UID       PID    %usr %system  %guest   %wait    %CPU   CPU  minflt/s  majflt/s     VSZ     RSS   %MEM   kB_rd/s   kB_wr/s kB_ccwr/s iodelay  Command
09:02:33 AM  1006    220820   93.00    3.00    0.00    0.00   96.00     4  16565.00      0.00  674060  599176   0.23  13107.00  65536.00      0.00       4  perf_experiment

# Time        UID       PID    %usr %system  %guest   %wait    %CPU   CPU  minflt/s  majflt/s     VSZ     RSS   %MEM   kB_rd/s   kB_wr/s kB_ccwr/s iodelay  Command
09:02:34 AM  1006    220820   98.00    2.00    0.00    0.00  100.00     4   1105.00      0.00  674196  599328   0.23  17994.50      0.00      0.00       0  perf_experiment

# Time        UID       PID    %usr %system  %guest   %wait    %CPU   CPU  minflt/s  majflt/s     VSZ     RSS   %MEM   kB_rd/s   kB_wr/s kB_ccwr/s iodelay  Command
09:02:35 AM  1006    220820   96.00    2.00    0.00    0.00   98.00     4   9340.00      0.00  674196  599448   0.23  17499.00  32768.00      0.00       2  perf_experiment

# Time        UID       PID    %usr %system  %guest   %wait    %CPU   CPU  minflt/s  majflt/s     VSZ     RSS   %MEM   kB_rd/s   kB_wr/s kB_ccwr/s iodelay  Command
09:02:36 AM  1006    220820   85.00    6.00    0.00    0.00   91.00     4  43459.00      0.00  675068  600128   0.23   7779.50 131072.00      0.00       9  perf_experiment

# Time        UID       PID    %usr %system  %guest   %wait    %CPU   CPU  minflt/s  majflt/s     VSZ     RSS   %MEM   kB_rd/s   kB_wr/s kB_ccwr/s iodelay  Command
09:02:37 AM  1006    220820   99.00    1.00    0.00    0.00  100.00     4     52.00      0.00  675068  600232   0.23  17971.00      0.00      0.00       0  perf_experiment

# Time        UID       PID    %usr %system  %guest   %wait    %CPU   CPU  minflt/s  majflt/s     VSZ     RSS   %MEM   kB_rd/s   kB_wr/s kB_ccwr/s iodelay  Command
09:02:38 AM  1006    220820   94.00    4.00    0.00    0.00   98.00     4   8230.00      0.00  675204  600364   0.23  17439.00  32768.00      0.00       2  perf_experiment

# Time        UID       PID    %usr %system  %guest   %wait    %CPU   CPU  minflt/s  majflt/s     VSZ     RSS   %MEM   kB_rd/s   kB_wr/s kB_ccwr/s iodelay  Command
09:02:39 AM  1006    220820   89.00    5.00    0.00    0.00   94.00     4  26846.00      0.00  675712  600920   0.23  10791.50  98304.00      0.00       7  perf_experiment

# Time        UID       PID    %usr %system  %guest   %wait    %CPU   CPU  minflt/s  majflt/s     VSZ     RSS   %MEM   kB_rd/s   kB_wr/s kB_ccwr/s iodelay  Command
09:02:40 AM  1006    220820   95.00    2.00    0.00    0.00   97.00     4   8901.00      0.00  676092  601228   0.23  14968.50  32768.00      0.00       2  perf_experiment

# Time        UID       PID    %usr %system  %guest   %wait    %CPU   CPU  minflt/s  majflt/s     VSZ     RSS   %MEM   kB_rd/s   kB_wr/s kB_ccwr/s iodelay  Command
09:02:41 AM  1006    220820   95.00    2.00    0.00    0.00   97.00     4   3038.00      0.00  676228  601392   0.23  17493.00  32768.00      0.00       2  perf_experiment

# Time        UID       PID    %usr %system  %guest   %wait    %CPU   CPU  minflt/s  majflt/s     VSZ     RSS   %MEM   kB_rd/s   kB_wr/s kB_ccwr/s iodelay  Command
09:02:42 AM  1006    220820   96.00    5.00    0.00    0.00  101.00     4   4898.00      0.00  676364  601504   0.23  18021.00      0.00      0.00       0  perf_experiment

# Time        UID       PID    %usr %system  %guest   %wait    %CPU   CPU  minflt/s  majflt/s     VSZ     RSS   %MEM   kB_rd/s   kB_wr/s kB_ccwr/s iodelay  Command
09:02:43 AM  1006    220820   86.00    4.00    0.00    0.00   90.00     4  41985.00      0.00  677100  602248   0.23   7709.50 131072.00      0.00      10  perf_experiment

# Time        UID       PID    %usr %system  %guest   %wait    %CPU   CPU  minflt/s  majflt/s     VSZ     RSS   %MEM   kB_rd/s   kB_wr/s kB_ccwr/s iodelay  Command
09:02:44 AM  1006    220820   93.00    5.00    0.00    0.00   98.00     4   8244.00      0.00  677224  602372   0.23  18176.00  32768.00      0.00       2  perf_experiment

# Time        UID       PID    %usr %system  %guest   %wait    %CPU   CPU  minflt/s  majflt/s     VSZ     RSS   %MEM   kB_rd/s   kB_wr/s kB_ccwr/s iodelay  Command
09:02:45 AM  1006    220820   98.00    2.00    0.00    0.00  100.00     4     47.00      0.00  677356  602372   0.23  18845.00      0.00      0.00       0  perf_experiment

# Time        UID       PID    %usr %system  %guest   %wait    %CPU   CPU  minflt/s  majflt/s     VSZ     RSS   %MEM   kB_rd/s   kB_wr/s kB_ccwr/s iodelay  Command
09:02:46 AM  1006    220820   89.00    2.00    0.00    0.00   91.00     4  33078.00      0.00  677976  603124   0.23   7998.50 131072.00      0.00       9  perf_experiment

# Time        UID       PID    %usr %system  %guest   %wait    %CPU   CPU  minflt/s  majflt/s     VSZ     RSS   %MEM   kB_rd/s   kB_wr/s kB_ccwr/s iodelay  Command
09:02:47 AM  1006    220820   95.00    2.00    0.00    0.00   97.00     4   4071.00      0.00  678112  603364   0.23  17295.00  32768.00      0.00       3  perf_experiment

# Time        UID       PID    %usr %system  %guest   %wait    %CPU   CPU  minflt/s  majflt/s     VSZ     RSS   %MEM   kB_rd/s   kB_wr/s kB_ccwr/s iodelay  Command
09:02:48 AM  1006    220820   98.00    2.00    0.00    0.00  100.00     4    837.00      0.00  678248  603476   0.23  17938.50      0.00      0.00       0  perf_experiment

# Time        UID       PID    %usr %system  %guest   %wait    %CPU   CPU  minflt/s  majflt/s     VSZ     RSS   %MEM   kB_rd/s   kB_wr/s kB_ccwr/s iodelay  Command
09:02:49 AM  1006    220820   93.00    3.00    0.00    0.00   96.00     4  14155.00      0.00  678508  603660   0.23  15512.50  65536.00      0.00       3  perf_experiment

# Time        UID       PID    %usr %system  %guest   %wait    %CPU   CPU  minflt/s  majflt/s     VSZ     RSS   %MEM   kB_rd/s   kB_wr/s kB_ccwr/s iodelay  Command
09:02:50 AM  1006    220820   90.00    3.00    0.00    0.00   93.00     4  33069.00      0.00  679136  604320   0.23   9537.50  98304.00      0.00       9  perf_experiment

# Time        UID       PID    %usr %system  %guest   %wait    %CPU   CPU  minflt/s  majflt/s     VSZ     RSS   %MEM   kB_rd/s   kB_wr/s kB_ccwr/s iodelay  Command
09:02:51 AM  1006    220820   98.00    1.00    0.00    0.00   99.00     4     24.00      0.00  679272  604320   0.23  18003.50      0.00      0.00       0  perf_experiment

# Time        UID       PID    %usr %system  %guest   %wait    %CPU   CPU  minflt/s  majflt/s     VSZ     RSS   %MEM   kB_rd/s   kB_wr/s kB_ccwr/s iodelay  Command
09:02:52 AM  1006    220820   96.00    3.00    0.00    0.00   99.00     4   8240.00      0.00  679404  604520   0.23  17488.00  32768.00      0.00       2  perf_experiment

# Time        UID       PID    %usr %system  %guest   %wait    %CPU   CPU  minflt/s  majflt/s     VSZ     RSS   %MEM   kB_rd/s   kB_wr/s kB_ccwr/s iodelay  Command
09:02:53 AM  1006    220820   86.00    4.00    0.00    0.00   90.00     4  33011.00      0.00  680024  605232   0.23   7739.00 131072.00      0.00       8  perf_experiment

# Time        UID       PID    %usr %system  %guest   %wait    %CPU   CPU  minflt/s  majflt/s     VSZ     RSS   %MEM   kB_rd/s   kB_wr/s kB_ccwr/s iodelay  Command
09:02:54 AM  1006    220820   98.00    2.00    0.00    0.00  100.00     4     43.00      0.00  680160  605340   0.23  18137.00      0.00      0.00       0  perf_experiment

# Time        UID       PID    %usr %system  %guest   %wait    %CPU   CPU  minflt/s  majflt/s     VSZ     RSS   %MEM   kB_rd/s   kB_wr/s kB_ccwr/s iodelay  Command
09:02:55 AM  1006    220820   96.00    2.00    0.00    0.00   98.00     4   3120.00      0.00  680292  605448   0.23  17357.00  32768.00      0.00       3  perf_experiment

# Time        UID       PID    %usr %system  %guest   %wait    %CPU   CPU  minflt/s  majflt/s     VSZ     RSS   %MEM   kB_rd/s   kB_wr/s kB_ccwr/s iodelay  Command
09:02:56 AM  1006    220820   93.00    3.00    0.00    0.00   96.00     4   4557.00      0.00  680552  605820   0.23  14298.50  65536.00      0.00       2  perf_experiment

# Time        UID       PID    %usr %system  %guest   %wait    %CPU   CPU  minflt/s  majflt/s     VSZ     RSS   %MEM   kB_rd/s   kB_wr/s kB_ccwr/s iodelay  Command
09:02:57 AM  1006    220820   89.00    5.00    0.00    0.00   94.00     4  17274.00      0.00  681176  606332   0.23  11451.50  65536.00      0.00       7  perf_experiment

# Time        UID       PID    %usr %system  %guest   %wait    %CPU   CPU  minflt/s  majflt/s     VSZ     RSS   %MEM   kB_rd/s   kB_wr/s kB_ccwr/s iodelay  Command
09:02:58 AM  1006    220820   95.00    4.00    0.00    0.00   99.00     4   8226.00      0.00  681312  606436   0.23  17333.00  32768.00      0.00       3  perf_experiment

# Time        UID       PID    %usr %system  %guest   %wait    %CPU   CPU  minflt/s  majflt/s     VSZ     RSS   %MEM   kB_rd/s   kB_wr/s kB_ccwr/s iodelay  Command
09:02:59 AM  1006    220820   98.00    1.00    0.00    0.00   99.00     4     42.00      0.00  681448  606504   0.23  18134.00      0.00      0.00       0  perf_experiment

# Time        UID       PID    %usr %system  %guest   %wait    %CPU   CPU  minflt/s  majflt/s     VSZ     RSS   %MEM   kB_rd/s   kB_wr/s kB_ccwr/s iodelay  Command
09:03:00 AM  1006    220820   88.00    4.00    0.00    0.00   92.00     4  33107.00      0.00  682196  607344   0.23   7651.50 131072.00      0.00       8  perf_experiment

# Time        UID       PID    %usr %system  %guest   %wait    %CPU   CPU  minflt/s  majflt/s     VSZ     RSS   %MEM   kB_rd/s   kB_wr/s kB_ccwr/s iodelay  Command
09:03:01 AM  1006    220820   95.00    3.00    0.00    0.00   98.00     4   8235.00      0.00  682196  607420   0.23  17556.00  32768.00      0.00       2  perf_experiment

# Time        UID       PID    %usr %system  %guest   %wait    %CPU   CPU  minflt/s  majflt/s     VSZ     RSS   %MEM   kB_rd/s   kB_wr/s kB_ccwr/s iodelay  Command
09:03:02 AM  1006    220820   99.00    1.00    0.00    0.00  100.00     4     51.00      0.00  682460  607484   0.23  18157.00      0.00      0.00       0  perf_experiment

# Time        UID       PID    %usr %system  %guest   %wait    %CPU   CPU  minflt/s  majflt/s     VSZ     RSS   %MEM   kB_rd/s   kB_wr/s kB_ccwr/s iodelay  Command
09:03:03 AM  1006    220820   90.00    3.00    0.00    0.00   93.00     4  22896.00      0.00  682832  607980   0.23  12247.00  98304.00      0.00       7  perf_experiment

# Time        UID       PID    %usr %system  %guest   %wait    %CPU   CPU  minflt/s  majflt/s     VSZ     RSS   %MEM   kB_rd/s   kB_wr/s kB_ccwr/s iodelay  Command
09:03:04 AM  1006    220820   93.00    2.00    0.00    0.00   95.00     4    151.00      0.00  683212  608420   0.23  13309.00  65536.00      0.00       5  perf_experiment

# Time        UID       PID    %usr %system  %guest   %wait    %CPU   CPU  minflt/s  majflt/s     VSZ     RSS   %MEM   kB_rd/s   kB_wr/s kB_ccwr/s iodelay  Command
09:03:05 AM  1006    220820   98.00    2.00    0.00    0.00  100.00     4     39.00      0.00  683348  608420   0.23  17973.00      0.00      0.00       0  perf_experiment

# Time        UID       PID    %usr %system  %guest   %wait    %CPU   CPU  minflt/s  majflt/s     VSZ     RSS   %MEM   kB_rd/s   kB_wr/s kB_ccwr/s iodelay  Command
09:03:06 AM  1006    220820   95.00    2.00    0.00    0.00   97.00     4     31.00      0.00  683484  608652   0.23  17608.50  32768.00      0.00       3  perf_experiment

# Time        UID       PID    %usr %system  %guest   %wait    %CPU   CPU  minflt/s  majflt/s     VSZ     RSS   %MEM   kB_rd/s   kB_wr/s kB_ccwr/s iodelay  Command
09:03:07 AM  1006    220820   88.00    3.00    0.00    0.00   91.00     4    262.00      0.00  684228  609376   0.23   7581.50 131072.00      0.00       9  perf_experiment

# Time        UID       PID    %usr %system  %guest   %wait    %CPU   CPU  minflt/s  majflt/s     VSZ     RSS   %MEM   kB_rd/s   kB_wr/s kB_ccwr/s iodelay  Command
09:03:08 AM  1006    220820   98.00    2.00    0.00    0.00  100.00     4    963.00      0.00  684364  609544   0.23  17979.00      0.00      0.00       0  perf_experiment

# Time        UID       PID    %usr %system  %guest   %wait    %CPU   CPU  minflt/s  majflt/s     VSZ     RSS   %MEM   kB_rd/s   kB_wr/s kB_ccwr/s iodelay  Command
09:03:09 AM  1006    220820   96.00    1.00    0.00    0.00   97.00     4   1127.00      0.00  684500  609640   0.23  17417.00  32768.00      0.00       3  perf_experiment

# Time        UID       PID    %usr %system  %guest   %wait    %CPU   CPU  minflt/s  majflt/s     VSZ     RSS   %MEM   kB_rd/s   kB_wr/s kB_ccwr/s iodelay  Command
09:03:10 AM  1006    220820   90.00    4.00    0.00    0.00   94.00     4   2735.00      0.00  684996  610144   0.23  10750.50  98304.00      0.00       7  perf_experiment

# Time        UID       PID    %usr %system  %guest   %wait    %CPU   CPU  minflt/s  majflt/s     VSZ     RSS   %MEM   kB_rd/s   kB_wr/s kB_ccwr/s iodelay  Command
09:03:11 AM  1006    220820   97.00    1.00    0.00    0.00   98.00     4   8330.00      0.00  685252  610396   0.23  15412.00  32768.00      0.00       2  perf_experiment

# Time        UID       PID    %usr %system  %guest   %wait    %CPU   CPU  minflt/s  majflt/s     VSZ     RSS   %MEM   kB_rd/s   kB_wr/s kB_ccwr/s iodelay  Command
09:03:12 AM  1006    220820   94.00    3.00    0.00    0.00   97.00     4   8234.00      0.00  685380  610560   0.23  17809.00  32768.00      0.00       2  perf_experiment

# Time        UID       PID    %usr %system  %guest   %wait    %CPU   CPU  minflt/s  majflt/s     VSZ     RSS   %MEM   kB_rd/s   kB_wr/s kB_ccwr/s iodelay  Command
09:03:13 AM  1006    220820   97.00    4.00    0.00    0.00  101.00     4   8248.00      0.00  685516  610736   0.23  18089.50  32768.00      0.00       0  perf_experiment

# Time        UID       PID    %usr %system  %guest   %wait    %CPU   CPU  minflt/s  majflt/s     VSZ     RSS   %MEM   kB_rd/s   kB_wr/s kB_ccwr/s iodelay  Command
09:03:14 AM  1006    220820   88.00    3.00    0.00    0.00   91.00     4  24899.00      0.00  686260  611408   0.23   8025.50  98304.00      0.00       8  perf_experiment

# Time        UID       PID    %usr %system  %guest   %wait    %CPU   CPU  minflt/s  majflt/s     VSZ     RSS   %MEM   kB_rd/s   kB_wr/s kB_ccwr/s iodelay  Command
09:03:15 AM  1006    220820   95.00    3.00    0.00    0.00   98.00     4   8220.00      0.00  686376  611568   0.23  17511.00  32768.00      0.00       2  perf_experiment

# Time        UID       PID    %usr %system  %guest   %wait    %CPU   CPU  minflt/s  majflt/s     VSZ     RSS   %MEM   kB_rd/s   kB_wr/s kB_ccwr/s iodelay  Command
09:03:16 AM  1006    220820   98.00    2.00    0.00    0.00  100.00     4     34.00      0.00  686512  611568   0.23  17970.00      0.00      0.00       0  perf_experiment

# Time        UID       PID    %usr %system  %guest   %wait    %CPU   CPU  minflt/s  majflt/s     VSZ     RSS   %MEM   kB_rd/s   kB_wr/s kB_ccwr/s iodelay  Command
09:03:17 AM  1006    220820   87.00    4.00    0.00    0.00   91.00     4  32193.00      0.00  687256  612404   0.23   7828.50 131072.00      0.00       9  perf_experiment

# Time        UID       PID    %usr %system  %guest   %wait    %CPU   CPU  minflt/s  majflt/s     VSZ     RSS   %MEM   kB_rd/s   kB_wr/s kB_ccwr/s iodelay  Command
09:03:18 AM  1006    220820   96.00    2.00    0.00    0.00   98.00     4     53.00      0.00  687392  612404   0.23  17393.50  32768.00      0.00       2  perf_experiment

# Time        UID       PID    %usr %system  %guest   %wait    %CPU   CPU  minflt/s  majflt/s     VSZ     RSS   %MEM   kB_rd/s   kB_wr/s kB_ccwr/s iodelay  Command
09:03:19 AM  1006    220820   99.00    0.00    0.00    0.00   99.00     4     38.00      0.00  687516  612664   0.23  18034.50      0.00      0.00       0  perf_experiment

# Time        UID       PID    %usr %system  %guest   %wait    %CPU   CPU  minflt/s  majflt/s     VSZ     RSS   %MEM   kB_rd/s   kB_wr/s kB_ccwr/s iodelay  Command
09:03:20 AM  1006    220820   95.00    2.00    0.00    0.00   97.00     4     65.00      0.00  687640  612788   0.23  15830.50  65536.00      0.00       3  perf_experiment

# Time        UID       PID    %usr %system  %guest   %wait    %CPU   CPU  minflt/s  majflt/s     VSZ     RSS   %MEM   kB_rd/s   kB_wr/s kB_ccwr/s iodelay  Command
09:03:21 AM  1006    220820   90.00    2.00    0.00    0.00   92.00     4    245.00      0.00  688392  613408   0.23   9453.50  98304.00      0.00       9  perf_experiment

# Time        UID       PID    %usr %system  %guest   %wait    %CPU   CPU  minflt/s  majflt/s     VSZ     RSS   %MEM   kB_rd/s   kB_wr/s kB_ccwr/s iodelay  Command
09:03:22 AM  1006    220820   96.00    4.00    0.00    0.00  100.00     4     39.00      0.00  688528  613596   0.23  18401.50      0.00      0.00       0  perf_experiment

# Time        UID       PID    %usr %system  %guest   %wait    %CPU   CPU  minflt/s  majflt/s     VSZ     RSS   %MEM   kB_rd/s   kB_wr/s kB_ccwr/s iodelay  Command
09:03:23 AM  1006    220820   96.00    1.00    0.00    0.00   97.00     4     51.00      0.00  688528  613756   0.23  17606.50  32768.00      0.00       3  perf_experiment

# Time        UID       PID    %usr %system  %guest   %wait    %CPU   CPU  minflt/s  majflt/s     VSZ     RSS   %MEM   kB_rd/s   kB_wr/s kB_ccwr/s iodelay  Command
09:03:24 AM  1006    220820   88.00    3.00    0.00    0.00   91.00     4   4305.00      0.00  689284  614512   0.23   7850.50 131072.00      0.00       9  perf_experiment

# Time        UID       PID    %usr %system  %guest   %wait    %CPU   CPU  minflt/s  majflt/s     VSZ     RSS   %MEM   kB_rd/s   kB_wr/s kB_ccwr/s iodelay  Command
09:03:25 AM  1006    220820   97.00    2.00    0.00    0.00   99.00     4    307.00      0.00  689416  614588   0.23  18054.00      0.00      0.00       0  perf_experiment

# Time        UID       PID    %usr %system  %guest   %wait    %CPU   CPU  minflt/s  majflt/s     VSZ     RSS   %MEM   kB_rd/s   kB_wr/s kB_ccwr/s iodelay  Command
09:03:26 AM  1006    220820   95.00    3.00    0.00    0.00   98.00     4   7540.00      0.00  689548  614688   0.23  17417.50  32768.00      0.00       3  perf_experiment

# Time        UID       PID    %usr %system  %guest   %wait    %CPU   CPU  minflt/s  majflt/s     VSZ     RSS   %MEM   kB_rd/s   kB_wr/s kB_ccwr/s iodelay  Command
09:03:27 AM  1006    220820   94.00    2.00    0.00    0.00   96.00     4  16525.00      0.00  689932  615080   0.23  13803.00  65536.00      0.00       4  perf_experiment

# Time        UID       PID    %usr %system  %guest   %wait    %CPU   CPU  minflt/s  majflt/s     VSZ     RSS   %MEM   kB_rd/s   kB_wr/s kB_ccwr/s iodelay  Command
09:03:28 AM  1006    220820   94.00    1.00    0.00    0.00   95.00     4    217.00      0.00  690440  615452   0.23  12013.50  65536.00      0.00       5  perf_experiment

# Time        UID       PID    %usr %system  %guest   %wait    %CPU   CPU  minflt/s  majflt/s     VSZ     RSS   %MEM   kB_rd/s   kB_wr/s kB_ccwr/s iodelay  Command
09:03:29 AM  1006    220820   96.00    2.00    0.00    0.00   98.00     4     29.00      0.00  690576  615648   0.23  17356.50  32768.00      0.00       2  perf_experiment

# Time        UID       PID    %usr %system  %guest   %wait    %CPU   CPU  minflt/s  majflt/s     VSZ     RSS   %MEM   kB_rd/s   kB_wr/s kB_ccwr/s iodelay  Command
09:03:30 AM  1006    220820   98.00    2.00    0.00    0.00  100.00     4    701.00      0.00  690712  615868   0.23  17954.00      0.00      0.00       0  perf_experiment

# Time        UID       PID    %usr %system  %guest   %wait    %CPU   CPU  minflt/s  majflt/s     VSZ     RSS   %MEM   kB_rd/s   kB_wr/s kB_ccwr/s iodelay  Command
09:03:31 AM  1006    220820   85.00    5.00    0.00    0.00   90.00     4  42228.00      0.00  691332  616480   0.23   7400.00 131072.00      0.00      10  perf_experiment

# Time        UID       PID    %usr %system  %guest   %wait    %CPU   CPU  minflt/s  majflt/s     VSZ     RSS   %MEM   kB_rd/s   kB_wr/s kB_ccwr/s iodelay  Command
09:03:32 AM  1006    220820   97.00    2.00    0.00    0.00   99.00     4   8226.00      0.00  691468  616648   0.23  17402.50  32768.00      0.00       2  perf_experiment

# Time        UID       PID    %usr %system  %guest   %wait    %CPU   CPU  minflt/s  majflt/s     VSZ     RSS   %MEM   kB_rd/s   kB_wr/s kB_ccwr/s iodelay  Command
09:03:33 AM  1006    220820   96.00    3.00    0.00    0.00   99.00     4     30.00      0.00  691600  616648   0.23  18015.50      0.00      0.00       0  perf_experiment

# Time        UID       PID    %usr %system  %guest   %wait    %CPU   CPU  minflt/s  majflt/s     VSZ     RSS   %MEM   kB_rd/s   kB_wr/s kB_ccwr/s iodelay  Command
09:03:34 AM  1006    220820   91.00    2.00    0.00    0.00   93.00     4    874.00      0.00  691984  617132   0.23  12456.00  98304.00      0.00       5  perf_experiment

# Time        UID       PID    %usr %system  %guest   %wait    %CPU   CPU  minflt/s  majflt/s     VSZ     RSS   %MEM   kB_rd/s   kB_wr/s kB_ccwr/s iodelay  Command
09:03:35 AM  1006    220820   89.11    4.95    0.00    0.00   94.06     4  14071.29      0.00  692492  617656   0.23  12537.13  64887.13      0.00       7  perf_experiment

# Time        UID       PID    %usr %system  %guest   %wait    %CPU   CPU  minflt/s  majflt/s     VSZ     RSS   %MEM   kB_rd/s   kB_wr/s kB_ccwr/s iodelay  Command
09:03:36 AM  1006    220820   97.00    3.00    0.00    0.00  100.00     4     40.00      0.00  692628  617656   0.23  17962.50      0.00      0.00       0  perf_experiment

# Time        UID       PID    %usr %system  %guest   %wait    %CPU   CPU  minflt/s  majflt/s     VSZ     RSS   %MEM   kB_rd/s   kB_wr/s kB_ccwr/s iodelay  Command
09:03:37 AM  1006    220820   96.00    2.00    0.00    0.00   98.00     4    780.00      0.00  692628  617840   0.23  17462.00  32768.00      0.00       2  perf_experiment

# Time        UID       PID    %usr %system  %guest   %wait    %CPU   CPU  minflt/s  majflt/s     VSZ     RSS   %MEM   kB_rd/s   kB_wr/s kB_ccwr/s iodelay  Command
09:03:38 AM  1006    220820   87.00    3.00    0.00    0.00   90.00     4    274.00      0.00  693384  618528   0.23   7571.00 131072.00      0.00      10  perf_experiment

# Time        UID       PID    %usr %system  %guest   %wait    %CPU   CPU  minflt/s  majflt/s     VSZ     RSS   %MEM   kB_rd/s   kB_wr/s kB_ccwr/s iodelay  Command
09:03:39 AM  1006    220820   98.00    2.00    0.00    0.00  100.00     4     38.00      0.00  693516  618736   0.23  18048.50      0.00      0.00       0  perf_experiment

# Time        UID       PID    %usr %system  %guest   %wait    %CPU   CPU  minflt/s  majflt/s     VSZ     RSS   %MEM   kB_rd/s   kB_wr/s kB_ccwr/s iodelay  Command
09:03:40 AM  1006    220820   96.00    2.00    0.00    0.00   98.00     4     47.00      0.00  693652  618736   0.23  17509.50  32768.00      0.00       2  perf_experiment

# Time        UID       PID    %usr %system  %guest   %wait    %CPU   CPU  minflt/s  majflt/s     VSZ     RSS   %MEM   kB_rd/s   kB_wr/s kB_ccwr/s iodelay  Command
09:03:41 AM  1006    220820   92.00    3.00    0.00    0.00   95.00     4    203.00      0.00  694160  619336   0.23  11390.00  98304.00      0.00       5  perf_experiment

# Time        UID       PID    %usr %system  %guest   %wait    %CPU   CPU  minflt/s  majflt/s     VSZ     RSS   %MEM   kB_rd/s   kB_wr/s kB_ccwr/s iodelay  Command
09:03:42 AM  1006    220820   92.00    3.00    0.00    0.00   95.00     4    120.00      0.00  694540  619552   0.23  14214.00  32768.00      0.00       5  perf_experiment

# Time        UID       PID    %usr %system  %guest   %wait    %CPU   CPU  minflt/s  majflt/s     VSZ     RSS   %MEM   kB_rd/s   kB_wr/s kB_ccwr/s iodelay  Command
09:03:43 AM  1006    220820   96.00    1.00    0.00    0.00   97.00     4     50.00      0.00  694676  619740   0.23  17340.00  32768.00      0.00       3  perf_experiment

# Time        UID       PID    %usr %system  %guest   %wait    %CPU   CPU  minflt/s  majflt/s     VSZ     RSS   %MEM   kB_rd/s   kB_wr/s kB_ccwr/s iodelay  Command
09:03:44 AM  1006    220820   99.00    1.00    0.00    0.00  100.00     4     21.00      0.00  694808  619740   0.23  18021.50      0.00      0.00       0  perf_experiment

# Time        UID       PID    %usr %system  %guest   %wait    %CPU   CPU  minflt/s  majflt/s     VSZ     RSS   %MEM   kB_rd/s   kB_wr/s kB_ccwr/s iodelay  Command
09:03:45 AM  1006    220820   88.00    3.00    0.00    0.00   91.00     4   5276.00      0.00  695560  620680   0.24   7631.50 131072.00      0.00       9  perf_experiment

# Time        UID       PID    %usr %system  %guest   %wait    %CPU   CPU  minflt/s  majflt/s     VSZ     RSS   %MEM   kB_rd/s   kB_wr/s kB_ccwr/s iodelay  Command