1,Faster,1,5000000,2500000,128,512,200700,2989527


resource usage stats

Linux 5.4.0-42-generic (arcon1) 	10/24/2020 	_x86_64_	(64 CPU)

# Time        UID       PID    %usr %system  %guest   %wait    %CPU   CPU  minflt/s  majflt/s     VSZ     RSS   %MEM   kB_rd/s   kB_wr/s kB_ccwr/s iodelay  Command
08:56:54 PM  1006    217830   79.00   19.00    0.00    0.00   98.00    24 144443.00      0.00  590180  582676   0.22      0.00      4.00      0.00       0  perf_experiment

# Time        UID       PID    %usr %system  %guest   %wait    %CPU   CPU  minflt/s  majflt/s     VSZ     RSS   %MEM   kB_rd/s   kB_wr/s kB_ccwr/s iodelay  Command
08:56:55 PM  1006    217830   79.00    3.00    0.00    0.00   82.00    24      2.00      0.00  590180  582676   0.22      0.00 262144.00      0.00      19  perf_experiment

# Time        UID       PID    %usr %system  %guest   %wait    %CPU   CPU  minflt/s  majflt/s     VSZ     RSS   %MEM   kB_rd/s   kB_wr/s kB_ccwr/s iodelay  Command
08:56:56 PM  1006    217830   79.00    1.00    0.00    0.00   80.00    24      2.00      0.00  590180  582676   0.22      0.00 262144.00      0.00      18  perf_experiment

# Time        UID       PID    %usr %system  %guest   %wait    %CPU   CPU  minflt/s  majflt/s     VSZ     RSS   %MEM   kB_rd/s   kB_wr/s kB_ccwr/s iodelay  Command
08:56:57 PM  1006    217830   79.00    3.00    0.00    0.00   82.00    24      1.00      0.00  590180  582676   0.22      0.00 262144.00      0.00      19  perf_experiment

# Time        UID       PID    %usr %system  %guest   %wait    %CPU   CPU  minflt/s  majflt/s     VSZ     RSS   %MEM   kB_rd/s   kB_wr/s kB_ccwr/s iodelay  Command
08:56:58 PM  1006    217830   80.00    2.00    0.00    0.00   82.00    24      1.00      0.00  590180  582676   0.22      0.00 262144.00      0.00      18  perf_experiment

# Time        UID       PID    %usr %system  %guest   %wait    %CPU   CPU  minflt/s  majflt/s     VSZ     RSS   %MEM   kB_rd/s   kB_wr/s kB_ccwr/s iodelay  Command
08:56:59 PM  1006    217830   81.00    1.00    0.00    0.00   82.00    24      1.00      0.00  590180  582676   0.22      0.00 229376.00      0.00      18  perf_experiment

# Time        UID       PID    %usr %system  %guest   %wait    %CPU   CPU  minflt/s  majflt/s     VSZ     RSS   %MEM   kB_rd/s   kB_wr/s kB_ccwr/s iodelay  Command
08:57:00 PM  1006    217830   79.00    2.00    0.00    0.00   81.00    24      2.00      0.00  590180  583124   0.22      0.00 262144.00      0.00      17  perf_experiment

# Time        UID       PID    %usr %system  %guest   %wait    %CPU   CPU  minflt/s  majflt/s     VSZ     RSS   %MEM   kB_rd/s   kB_wr/s kB_ccwr/s iodelay  Command
08:57:01 PM  1006    217830   80.00    2.00    0.00    0.00   82.00    24    512.00      0.00  590180  583128   0.22      0.00 229376.00      0.00      20  perf_experiment

# Time        UID       PID    %usr %system  %guest   %wait    %CPU   CPU  minflt/s  majflt/s     VSZ     RSS   %MEM   kB_rd/s   kB_wr/s kB_ccwr/s iodelay  Command
08:57:02 PM  1006    217830   83.00    1.00    0.00    0.00   84.00    24      1.00      0.00  590180  583128   0.22      0.00 229376.00      0.00      17  perf_experiment

# Time        UID       PID    %usr %system  %guest   %wait    %CPU   CPU  minflt/s  majflt/s     VSZ     RSS   %MEM   kB_rd/s   kB_wr/s kB_ccwr/s iodelay  Command
08:57:03 PM  1006    217830   81.00    2.00    0.00    0.00   83.00    24      1.00      0.00  590312  583128   0.22      0.00 229376.00      0.00      16  perf_experiment

# Time        UID       PID    %usr %system  %guest   %wait    %CPU   CPU  minflt/s  majflt/s     VSZ     RSS   %MEM   kB_rd/s   kB_wr/s kB_ccwr/s iodelay  Command
08:57:04 PM  1006    217830   81.00    2.00    0.00    0.00   83.00    24      2.00      0.00  590312  583128   0.22      0.00 229376.00      0.00      17  perf_experiment

# Time        UID       PID    %usr %system  %guest   %wait    %CPU   CPU  minflt/s  majflt/s     VSZ     RSS   %MEM   kB_rd/s   kB_wr/s kB_ccwr/s iodelay  Command
08:57:05 PM  1006    217830   81.00    2.00    0.00    0.00   83.00    24      0.00      0.00  590312  583128   0.22      0.00 229376.00      0.00      17  perf_experiment

# Time        UID       PID    %usr %system  %guest   %wait    %CPU   CPU  minflt/s  majflt/s     VSZ     RSS   %MEM   kB_rd/s   kB_wr/s kB_ccwr/s iodelay  Command
08:57:06 PM  1006    217830   81.00    2.00    0.00    0.00   83.00    24      0.00      0.00  590312  583128   0.22      0.00 229376.00      0.00      17  perf_experiment

# Time        UID       PID    %usr %system  %guest   %wait    %CPU   CPU  minflt/s  majflt/s     VSZ     RSS   %MEM   kB_rd/s   kB_wr/s kB_ccwr/s iodelay  Command
08:57:07 PM  1006    217830   81.00    1.00    0.00    0.00   82.00    24      1.00      0.00  590312  583128   0.22      0.00 229376.00      0.00      18  perf_experiment

# Time        UID       PID    %usr %system  %guest   %wait    %CPU   CPU  minflt/s  majflt/s     VSZ     RSS   %MEM   kB_rd/s   kB_wr/s kB_ccwr/s iodelay  Command
08:57:08 PM  1006    217830   84.00    2.00    0.00    0.00   86.00    24      1.00      0.00  590312  583128   0.22      0.00 196608.00      0.00      14  perf_experiment

# Time        UID       PID    %usr %system  %guest   %wait    %CPU   CPU  minflt/s  majflt/s     VSZ     RSS   %MEM   kB_rd/s   kB_wr/s kB_ccwr/s iodelay  Command
08:57:09 PM  1006    217830   97.00    1.00    0.00    0.00   98.00    24     65.00      0.00  658048  583172   0.22  10409.50  32768.00      0.00       3  perf_experiment

# Time        UID       PID    %usr %system  %guest   %wait    %CPU   CPU  minflt/s  majflt/s     VSZ     RSS   %MEM   kB_rd/s   kB_wr/s kB_ccwr/s iodelay  Command
08:57:10 PM  1006    217830   96.00    4.00    0.00    0.00  100.00    24     63.00      0.00  658312  583436   0.22  11053.50      0.00      0.00       0  perf_experiment

# Time        UID       PID    %usr %system  %guest   %wait    %CPU   CPU  minflt/s  majflt/s     VSZ     RSS   %MEM   kB_rd/s   kB_wr/s kB_ccwr/s iodelay  Command
08:57:11 PM  1006    217830   99.00    1.00    0.00    0.00  100.00    24   8249.00      0.00  658580  583872   0.22  10936.00      0.00      0.00       0  perf_experiment

# Time        UID       PID    %usr %system  %guest   %wait    %CPU   CPU  minflt/s  majflt/s     VSZ     RSS   %MEM   kB_rd/s   kB_wr/s kB_ccwr/s iodelay  Command
08:57:12 PM  1006    217830   99.00    1.00    0.00    0.00  100.00    24   1154.00      0.00  658848  584068   0.22  11066.50      0.00      0.00       0  perf_experiment

# Time        UID       PID    %usr %system  %guest   %wait    %CPU   CPU  minflt/s  majflt/s     VSZ     RSS   %MEM   kB_rd/s   kB_wr/s kB_ccwr/s iodelay  Command
08:57:13 PM  1006    217830   98.00    2.00    0.00    0.00  100.00    24    569.00      0.00  658984  584324   0.22  11055.50      0.00      0.00       0  perf_experiment

# Time        UID       PID    %usr %system  %guest   %wait    %CPU   CPU  minflt/s  majflt/s     VSZ     RSS   %MEM   kB_rd/s   kB_wr/s kB_ccwr/s iodelay  Command
08:57:14 PM  1006    217830   96.00    3.00    0.00    0.00   99.00    24    454.00      0.00  659248  584540   0.22  11028.00      0.00      0.00       0  perf_experiment

# Time        UID       PID    %usr %system  %guest   %wait    %CPU   CPU  minflt/s  majflt/s     VSZ     RSS   %MEM   kB_rd/s   kB_wr/s kB_ccwr/s iodelay  Command
08:57:15 PM  1006    217830   97.00    4.00    0.00    0.00  101.00    24    622.00      0.00  659520  584804   0.22  10963.50      0.00      0.00       0  perf_experiment

# Time        UID       PID    %usr %system  %guest   %wait    %CPU   CPU  minflt/s  majflt/s     VSZ     RSS   %MEM   kB_rd/s   kB_wr/s kB_ccwr/s iodelay  Command
08:57:16 PM  1006    217830   97.00    2.00    0.00    0.00   99.00    24    682.00      0.00  659652  585020   0.22  11047.00      0.00      0.00       0  perf_experiment

# Time        UID       PID    %usr %system  %guest   %wait    %CPU   CPU  minflt/s  majflt/s     VSZ     RSS   %MEM   kB_rd/s   kB_wr/s kB_ccwr/s iodelay  Command
08:57:17 PM  1006    217830   98.00    3.00    0.00    0.00  101.00    24    774.00      0.00  659912  585276   0.22  11055.00      0.00      0.00       0  perf_experiment

# Time        UID       PID    %usr %system  %guest   %wait    %CPU   CPU  minflt/s  majflt/s     VSZ     RSS   %MEM   kB_rd/s   kB_wr/s kB_ccwr/s iodelay  Command
08:57:18 PM  1006    217830   99.00    1.00    0.00    0.00  100.00    24    702.00      0.00  660172  585512   0.22  11028.50      0.00      0.00       0  perf_experiment

# Time        UID       PID    %usr %system  %guest   %wait    %CPU   CPU  minflt/s  majflt/s     VSZ     RSS   %MEM   kB_rd/s   kB_wr/s kB_ccwr/s iodelay  Command
08:57:19 PM  1006    217830   99.00    1.00    0.00    0.00  100.00    24    655.00      0.00  660436  585704   0.22  11158.00      0.00      0.00       0  perf_experiment

# Time        UID       PID    %usr %system  %guest   %wait    %CPU   CPU  minflt/s  majflt/s     VSZ     RSS   %MEM   kB_rd/s   kB_wr/s kB_ccwr/s iodelay  Command
08:57:20 PM  1006    217830   95.00    5.00    0.00    0.00  100.00    24    685.00      0.00  660564  585924   0.22  11165.50      0.00      0.00       0  perf_experiment

# Time        UID       PID    %usr %system  %guest   %wait    %CPU   CPU  minflt/s  majflt/s     VSZ     RSS   %MEM   kB_rd/s   kB_wr/s kB_ccwr/s iodelay  Command
08:57:21 PM  1006    217830   98.00    2.00    0.00    0.00  100.00    24    730.00      0.00  660960  586220   0.22  11181.00      0.00      0.00       0  perf_experiment

# Time        UID       PID    %usr %system  %guest   %wait    %CPU   CPU  minflt/s  majflt/s     VSZ     RSS   %MEM   kB_rd/s   kB_wr/s kB_ccwr/s iodelay  Command
08:57:22 PM  1006    217830   97.00    3.00    0.00    0.00  100.00    24    637.00      0.00  661096  586420   0.22  11177.50      0.00      0.00       0  perf_experiment

# Time        UID       PID    %usr %system  %guest   %wait    %CPU   CPU  minflt/s  majflt/s     VSZ     RSS   %MEM   kB_rd/s   kB_wr/s kB_ccwr/s iodelay  Command
08:57:23 PM  1006    217830   96.00    4.00    0.00    0.00  100.00    24    656.00      0.00  661340  586672   0.22  11083.50      0.00      0.00       0  perf_experiment

# Time        UID       PID    %usr %system  %guest   %wait    %CPU   CPU  minflt/s  majflt/s     VSZ     RSS   %MEM   kB_rd/s   kB_wr/s kB_ccwr/s iodelay  Command
08:57:24 PM  1006    217830   94.06    4.95    0.00    0.00   99.01    24    595.05      0.00  661612  586884   0.22  11080.69      0.00      0.00       0  perf_experiment

# Time        UID       PID    %usr %system  %guest   %wait    %CPU   CPU  minflt/s  majflt/s     VSZ     RSS   %MEM   kB_rd/s   kB_wr/s kB_ccwr/s iodelay  Command
08:57:25 PM  1006    217830   97.00    2.00    0.00    0.00   99.00    24   8959.00      0.00  661872  587124   0.22  11032.00      0.00      0.00       0  perf_experiment

# Time        UID       PID    %usr %system  %guest   %wait    %CPU   CPU  minflt/s  majflt/s     VSZ     RSS   %MEM   kB_rd/s   kB_wr/s kB_ccwr/s iodelay  Command
08:57:26 PM  1006    217830   96.00    4.00    0.00    0.00  100.00    24   1276.00      0.00  662004  587336   0.22  11130.00      0.00      0.00       0  perf_experiment

# Time        UID       PID    %usr %system  %guest   %wait    %CPU   CPU  minflt/s  majflt/s     VSZ     RSS   %MEM   kB_rd/s   kB_wr/s kB_ccwr/s iodelay  Command
08:57:27 PM  1006    217830   98.00    2.00    0.00    0.00  100.00    24    861.00      0.00  662260  587592   0.22  11144.00      0.00      0.00       0  perf_experiment

# Time        UID       PID    %usr %system  %guest   %wait    %CPU   CPU  minflt/s  majflt/s     VSZ     RSS   %MEM   kB_rd/s   kB_wr/s kB_ccwr/s iodelay  Command
08:57:28 PM  1006    217830   97.00    3.00    0.00    0.00  100.00    24    734.00      0.00  662528  587836   0.22  11158.00      0.00      0.00       0  perf_experiment

# Time        UID       PID    %usr %system  %guest   %wait    %CPU   CPU  minflt/s  majflt/s     VSZ     RSS   %MEM   kB_rd/s   kB_wr/s kB_ccwr/s iodelay  Command
08:57:29 PM  1006    217830   98.00    3.00    0.00    0.00  101.00    24    712.00      0.00  662788  588080   0.22  11161.00      0.00      0.00       0  perf_experiment

# Time        UID       PID    %usr %system  %guest   %wait    %CPU   CPU  minflt/s  majflt/s     VSZ     RSS   %MEM   kB_rd/s   kB_wr/s kB_ccwr/s iodelay  Command
08:57:30 PM  1006    217830   97.00    2.00    0.00    0.00   99.00    24    675.00      0.00  663044  588284   0.22  11112.50      0.00      0.00       0  perf_experiment

# Time        UID       PID    %usr %system  %guest   %wait    %CPU   CPU  minflt/s  majflt/s     VSZ     RSS   %MEM   kB_rd/s   kB_wr/s kB_ccwr/s iodelay  Command
08:57:31 PM  1006    217830   97.00    4.00    0.00    0.00  101.00    24    677.00      0.00  663316  588552   0.22  11144.00      0.00      0.00       0  perf_experiment

# Time        UID       PID    %usr %system  %guest   %wait    %CPU   CPU  minflt/s  majflt/s     VSZ     RSS   %MEM   kB_rd/s   kB_wr/s kB_ccwr/s iodelay  Command
08:57:32 PM  1006    217830   98.00    2.00    0.00    0.00  100.00    24    686.00      0.00  663448  588748   0.22  11156.00      0.00      0.00       0  perf_experiment

# Time        UID       PID    %usr %system  %guest   %wait    %CPU   CPU  minflt/s  majflt/s     VSZ     RSS   %MEM   kB_rd/s   kB_wr/s kB_ccwr/s iodelay  Command
08:57:33 PM  1006    217830   98.00    2.00    0.00    0.00  100.00    24    669.00      0.00  663704  588980   0.22  11124.00      0.00      0.00       0  perf_experiment

# Time        UID       PID    %usr %system  %guest   %wait    %CPU   CPU  minflt/s  majflt/s     VSZ     RSS   %MEM   kB_rd/s   kB_wr/s kB_ccwr/s iodelay  Command
08:57:34 PM  1006    217830   95.00    4.00    0.00    0.00   99.00    24    641.00      0.00  663952  589208   0.22  11188.00      0.00      0.00       0  perf_experiment

# Time        UID       PID    %usr %system  %guest   %wait    %CPU   CPU  minflt/s  majflt/s     VSZ     RSS   %MEM   kB_rd/s   kB_wr/s kB_ccwr/s iodelay  Command
08:57:35 PM  1006    217830   96.00    4.00    0.00    0.00  100.00    24    694.00      0.00  664220  589472   0.22  11130.00      0.00      0.00       0  perf_experiment

# Time        UID       PID    %usr %system  %guest   %wait    %CPU   CPU  minflt/s  majflt/s     VSZ     RSS   %MEM   kB_rd/s   kB_wr/s kB_ccwr/s iodelay  Command
08:57:36 PM  1006    217830   98.00    2.00    0.00    0.00  100.00    24    629.00      0.00  664348  589704   0.22  11108.50      0.00      0.00       0  perf_experiment

# Time        UID       PID    %usr %system  %guest   %wait    %CPU   CPU  minflt/s  majflt/s     VSZ     RSS   %MEM   kB_rd/s   kB_wr/s kB_ccwr/s iodelay  Command
08:57:37 PM  1006    217830   97.00    4.00    0.00    0.00  101.00    24    671.00      0.00  664604  589952   0.22  11225.50      0.00      0.00       0  perf_experiment

# Time        UID       PID    %usr %system  %guest   %wait    %CPU   CPU  minflt/s  majflt/s     VSZ     RSS   %MEM   kB_rd/s   kB_wr/s kB_ccwr/s iodelay  Command
08:57:38 PM  1006    217830   96.00    3.00    0.00    0.00   99.00    24    652.00      0.00  664868  590160   0.22  11177.00      0.00      0.00       0  perf_experiment

# Time        UID       PID    %usr %system  %guest   %wait    %CPU   CPU  minflt/s  majflt/s     VSZ     RSS   %MEM   kB_rd/s   kB_wr/s kB_ccwr/s iodelay  Command
08:57:39 PM  1006    217830   98.00    3.00    0.00    0.00  101.00    24    623.00      0.00  665140  590400   0.22  11154.00      0.00      0.00       0  perf_experiment

# Time        UID       PID    %usr %system  %guest   %wait    %CPU   CPU  minflt/s  majflt/s     VSZ     RSS   %MEM   kB_rd/s   kB_wr/s kB_ccwr/s iodelay  Command
08:57:40 PM  1006    217830   98.00    2.00    0.00    0.00  100.00    24    645.00      0.00  665276  590616   0.22  11166.00      0.00      0.00       0  perf_experiment

# Time        UID       PID    %usr %system  %guest   %wait    %CPU   CPU  minflt/s  majflt/s     VSZ     RSS   %MEM   kB_rd/s   kB_wr/s kB_ccwr/s iodelay  Command
08:57:41 PM  1006    217830   96.00    3.00    0.00    0.00   99.00    24    596.00      0.00  665540  590888   0.22  11143.00      0.00      0.00       0  perf_experiment

# Time        UID       PID    %usr %system  %guest   %wait    %CPU   CPU  minflt/s  majflt/s     VSZ     RSS   %MEM   kB_rd/s   kB_wr/s kB_ccwr/s iodelay  Command
08:57:42 PM  1006    217830   98.00    3.00    0.00    0.00  101.00    24    643.00      0.00  665800  591132   0.22  11173.50      0.00      0.00       0  perf_experiment

# Time        UID       PID    %usr %system  %guest   %wait    %CPU   CPU  minflt/s  majflt/s     VSZ     RSS   %MEM   kB_rd/s   kB_wr/s kB_ccwr/s iodelay  Command
08:57:43 PM  1006    217830   98.00    2.00    0.00    0.00  100.00    24   8922.00      0.00  666052  591340   0.22  11087.00      0.00      0.00       0  perf_experiment

# Time        UID       PID    %usr %system  %guest   %wait    %CPU   CPU  minflt/s  majflt/s     VSZ     RSS   %MEM   kB_rd/s   kB_wr/s kB_ccwr/s iodelay  Command
08:57:44 PM  1006    217830   97.00    3.00    0.00    0.00  100.00    24   1304.00      0.00  666320  591576   0.22  11107.50      0.00      0.00       0  perf_experiment

# Time        UID       PID    %usr %system  %guest   %wait    %CPU   CPU  minflt/s  majflt/s     VSZ     RSS   %MEM   kB_rd/s   kB_wr/s kB_ccwr/s iodelay  Command
08:57:45 PM  1006    217830   95.00    5.00    0.00    0.00  100.00    24    891.00      0.00  666452  591800   0.22  11093.50      0.00      0.00       0  perf_experiment

# Time        UID       PID    %usr %system  %guest   %wait    %CPU   CPU  minflt/s  majflt/s     VSZ     RSS   %MEM   kB_rd/s   kB_wr/s kB_ccwr/s iodelay  Command
08:57:46 PM  1006    217830   96.00    3.00    0.00    0.00   99.00    24    735.00      0.00  666724  592044   0.22  11118.00      0.00      0.00       0  perf_experiment

# Time        UID       PID    %usr %system  %guest   %wait    %CPU   CPU  minflt/s  majflt/s     VSZ     RSS   %MEM   kB_rd/s   kB_wr/s kB_ccwr/s iodelay  Command
08:57:47 PM  1006    217830   98.00    3.00    0.00    0.00  101.00    24    674.00      0.00  666992  592292   0.22  11144.00      0.00      0.00       0  perf_experiment

# Time        UID       PID    %usr %system  %guest   %wait    %CPU   CPU  minflt/s  majflt/s     VSZ     RSS   %MEM   kB_rd/s   kB_wr/s kB_ccwr/s iodelay  Command
08:57:48 PM  1006    217830   98.00    2.00    0.00    0.00  100.00    24    691.00      0.00  667264  592492   0.22  11154.00      0.00      0.00       0  perf_experiment

# Time        UID       PID    %usr %system  %guest   %wait    %CPU   CPU  minflt/s  majflt/s     VSZ     RSS   %MEM   kB_rd/s   kB_wr/s kB_ccwr/s iodelay  Command
08:57:49 PM  1006    217830   98.00    2.00    0.00    0.00  100.00    24    634.00      0.00  667388  592740   0.22  11139.00      0.00      0.00       0  perf_experiment

# Time        UID       PID    %usr %system  %guest   %wait    %CPU   CPU  minflt/s  majflt/s     VSZ     RSS   %MEM   kB_rd/s   kB_wr/s kB_ccwr/s iodelay  Command
08:57:50 PM  1006    217830   96.00    4.00    0.00    0.00  100.00    24    695.00      0.00  667652  592980   0.22  11133.00      0.00      0.00       0  perf_experiment

# Time        UID       PID    %usr %system  %guest   %wait    %CPU   CPU  minflt/s  majflt/s     VSZ     RSS   %MEM   kB_rd/s   kB_wr/s kB_ccwr/s iodelay  Command
08:57:51 PM  1006    217830   98.00    1.00    0.00    0.00   99.00    24    671.00      0.00  667912  593232   0.22  11211.00      0.00      0.00       0  perf_experiment

# Time        UID       PID    %usr %system  %guest   %wait    %CPU   CPU  minflt/s  majflt/s     VSZ     RSS   %MEM   kB_rd/s   kB_wr/s kB_ccwr/s iodelay  Command
08:57:52 PM  1006    217830   97.00    3.00    0.00    0.00  100.00    24    673.00      0.00  668172  593424   0.22  11129.50      0.00      0.00       0  perf_experiment

# Time        UID       PID    %usr %system  %guest   %wait    %CPU   CPU  minflt/s  majflt/s     VSZ     RSS   %MEM   kB_rd/s   kB_wr/s kB_ccwr/s iodelay  Command
08:57:53 PM  1006    217830   97.00    4.00    0.00    0.00  101.00    24    626.00      0.00  668440  593660   0.23  11169.50      0.00      0.00       0  perf_experiment

# Time        UID       PID    %usr %system  %guest   %wait    %CPU   CPU  minflt/s  majflt/s     VSZ     RSS   %MEM   kB_rd/s   kB_wr/s kB_ccwr/s iodelay  Command
08:57:54 PM  1006    217830   97.00    3.00    0.00    0.00  100.00    24    631.00      0.00  668572  593904   0.23  11176.50      0.00      0.00       0  perf_experiment

# Time        UID       PID    %usr %system  %guest   %wait    %CPU   CPU  minflt/s  majflt/s     VSZ     RSS   %MEM   kB_rd/s   kB_wr/s kB_ccwr/s iodelay  Command
08:57:55 PM  1006    217830   98.00    1.00    0.00    0.00   99.00    24    656.00      0.00  668840  594156   0.23  11146.50      0.00      0.00       0  perf_experiment

# Time        UID       PID    %usr %system  %guest   %wait    %CPU   CPU  minflt/s  majflt/s     VSZ     RSS   %MEM   kB_rd/s   kB_wr/s kB_ccwr/s iodelay  Command
08:57:56 PM  1006    217830   97.00    3.00    0.00    0.00  100.00    24    626.00      0.00  669108  594408   0.23  11231.00      0.00      0.00       0  perf_experiment

# Time        UID       PID    %usr %system  %guest   %wait    %CPU   CPU  minflt/s  majflt/s     VSZ     RSS   %MEM   kB_rd/s   kB_wr/s kB_ccwr/s iodelay  Command
08:57:57 PM  1006    217830   99.00    1.00    0.00    0.00  100.00    24    638.00      0.00  669372  594592   0.23  11216.50      0.00      0.00       0  perf_experiment

# Time        UID       PID    %usr %system  %guest   %wait    %CPU   CPU  minflt/s  majflt/s     VSZ     RSS   %MEM   kB_rd/s   kB_wr/s kB_ccwr/s iodelay  Command
08:57:58 PM  1006    217830   98.00    3.00    0.00    0.00  101.00    24    640.00      0.00  669508  594860   0.23  11179.00      0.00      0.00       0  perf_experiment

# Time        UID       PID    %usr %system  %guest   %wait    %CPU   CPU  minflt/s  majflt/s     VSZ     RSS   %MEM   kB_rd/s   kB_wr/s kB_ccwr/s iodelay  Command
08:57:59 PM  1006    217830   98.00    2.00    0.00    0.00  100.00    24    678.00      0.00  669772  595096   0.23  11176.00      0.00      0.00       0  perf_experiment

# Time        UID       PID    %usr %system  %guest   %wait    %CPU   CPU  minflt/s  majflt/s     VSZ     RSS   %MEM   kB_rd/s   kB_wr/s kB_ccwr/s iodelay  Command
08:58:00 PM  1006    217830   94.00    5.00    0.00    0.00   99.00    24    641.00      0.00  670044  595344   0.23  11147.50      0.00      0.00       0  perf_experiment

# Time        UID       PID    %usr %system  %guest   %wait    %CPU   CPU  minflt/s  majflt/s     VSZ     RSS   %MEM   kB_rd/s   kB_wr/s kB_ccwr/s iodelay  Command
08:58:01 PM  1006    217830   98.00    3.00    0.00    0.00  101.00    24    622.00      0.00  670180  595528   0.23  11169.50      0.00      0.00       0  perf_experiment

# Time        UID       PID    %usr %system  %guest   %wait    %CPU   CPU  minflt/s  majflt/s     VSZ     RSS   %MEM   kB_rd/s   kB_wr/s kB_ccwr/s iodelay  Command
08:58:02 PM  1006    217830   95.00    5.00    0.00    0.00  100.00    24    638.00      0.00  670440  595784   0.23  11192.00      0.00      0.00       0  perf_experiment

# Time        UID       PID    %usr %system  %guest   %wait    %CPU   CPU  minflt/s  majflt/s     VSZ     RSS   %MEM   kB_rd/s   kB_wr/s kB_ccwr/s iodelay  Command
08:58:03 PM  1006    217830   97.00    3.00    0.00    0.00  100.00    24    610.00      0.00  670712  596076   0.23  11105.50      0.00      0.00       0  perf_experiment

# Time        UID       PID    %usr %system  %guest   %wait    %CPU   CPU  minflt/s  majflt/s     VSZ     RSS   %MEM   kB_rd/s   kB_wr/s kB_ccwr/s iodelay  Command
08:58:04 PM  1006    217830   97.00    3.00    0.00    0.00  100.00    24    570.00      0.00  670976  596284   0.23  11165.00      0.00      0.00       0  perf_experiment

# Time        UID       PID    %usr %system  %guest   %wait    %CPU   CPU  minflt/s  majflt/s     VSZ     RSS   %MEM   kB_rd/s   kB_wr/s kB_ccwr/s iodelay  Command
08:58:05 PM  1006    217830   97.00    3.00    0.00    0.00  100.00    24    601.00      0.00  671112  596484   0.23  11060.00      0.00      0.00       0  perf_experiment

# Time        UID       PID    %usr %system  %guest   %wait    %CPU   CPU  minflt/s  majflt/s     VSZ     RSS   %MEM   kB_rd/s   kB_wr/s kB_ccwr/s iodelay  Command
08:58:06 PM  1006    217830   96.00    4.00    0.00    0.00  100.00    24   7774.00      0.00  671364  596728   0.23  11094.50      0.00      0.00       0  perf_experiment

# Time        UID       PID    %usr %system  %guest   %wait    %CPU   CPU  minflt/s  majflt/s     VSZ     RSS   %MEM   kB_rd/s   kB_wr/s kB_ccwr/s iodelay  Command
08:58:07 PM  1006    217830   97.00    3.00    0.00    0.00  100.00    24   2207.00      0.00  671632  596956   0.23  11144.50      0.00      0.00       0  perf_experiment

# Time        UID       PID    %usr %system  %guest   %wait    %CPU   CPU  minflt/s  majflt/s     VSZ     RSS   %MEM   kB_rd/s   kB_wr/s kB_ccwr/s iodelay  Command
08:58:08 PM  1006    217830   97.00    3.00    0.00    0.00  100.00    24    946.00      0.00  671904  597204   0.23  11171.00      0.00      0.00       0  perf_experiment

# Time        UID       PID    %usr %system  %guest   %wait    %CPU   CPU  minflt/s  majflt/s     VSZ     RSS   %MEM   kB_rd/s   kB_wr/s kB_ccwr/s iodelay  Command
08:58:09 PM  1006    217830   97.00    3.00    0.00    0.00  100.00    24    714.00      0.00  672168  597420   0.23  11149.50      0.00      0.00       0  perf_experiment

# Time        UID       PID    %usr %system  %guest   %wait    %CPU   CPU  minflt/s  majflt/s     VSZ     RSS   %MEM   kB_rd/s   kB_wr/s kB_ccwr/s iodelay  Command
08:58:10 PM  1006    217830   96.00    4.00    0.00    0.00  100.00    24    648.00      0.00  672304  597652   0.23  11194.00      0.00      0.00       0  perf_experiment

# Time        UID       PID    %usr %system  %guest   %wait    %CPU   CPU  minflt/s  majflt/s     VSZ     RSS   %MEM   kB_rd/s   kB_wr/s kB_ccwr/s iodelay  Command
08:58:11 PM  1006    217830   97.00    3.00    0.00    0.00  100.00    24    641.00      0.00  672564  597884   0.23  11181.50      0.00      0.00       0  perf_experiment

# Time        UID       PID    %usr %system  %guest   %wait    %CPU   CPU  minflt/s  majflt/s     VSZ     RSS   %MEM   kB_rd/s   kB_wr/s kB_ccwr/s iodelay  Command
08:58:12 PM  1006    217830   98.00    2.00    0.00    0.00  100.00    24    628.00      0.00  672824  598148   0.23  11171.50      0.00      0.00       0  perf_experiment

# Time        UID       PID    %usr %system  %guest   %wait    %CPU   CPU  minflt/s  majflt/s     VSZ     RSS   %MEM   kB_rd/s   kB_wr/s kB_ccwr/s iodelay  Command
08:58:13 PM  1006    217830   98.00    1.00    0.00    0.00   99.00    24    592.00      0.00  673092  598368   0.23  11123.50      0.00      0.00       0  perf_experiment

# Time        UID       PID    %usr %system  %guest   %wait    %CPU   CPU  minflt/s  majflt/s     VSZ     RSS   %MEM   kB_rd/s   kB_wr/s kB_ccwr/s iodelay  Command
08:58:14 PM  1006    217830   99.00    2.00    0.00    0.00  101.00    24    620.00      0.00  673340  598600   0.23  11189.50      0.00      0.00       0  perf_experiment

# Time        UID       PID    %usr %system  %guest   %wait    %CPU   CPU  minflt/s  majflt/s     VSZ     RSS   %MEM   kB_rd/s   kB_wr/s kB_ccwr/s iodelay  Command
08:58:15 PM  1006    217830   98.00    2.00    0.00    0.00  100.00    24    616.00      0.00  673600  598836   0.23  11151.50      0.00      0.00       0  perf_experiment

# Time        UID       PID    %usr %system  %guest   %wait    %CPU   CPU  minflt/s  majflt/s     VSZ     RSS   %MEM   kB_rd/s   kB_wr/s kB_ccwr/s iodelay  Command
08:58:16 PM  1006    217830   98.00    2.00    0.00    0.00  100.00    24    667.00      0.00  673732  599056   0.23  11169.00      0.00      0.00       0  perf_experiment

# Time        UID       PID    %usr %system  %guest   %wait    %CPU   CPU  minflt/s  majflt/s     VSZ     RSS   %MEM   kB_rd/s   kB_wr/s kB_ccwr/s iodelay  Command
08:58:17 PM  1006    217830   97.00    3.00    0.00    0.00  100.00    24    712.00      0.00  674004  599328   0.23  11119.50      0.00      0.00       0  perf_experiment

# Time        UID       PID    %usr %system  %guest   %wait    %CPU   CPU  minflt/s  majflt/s     VSZ     RSS   %MEM   kB_rd/s   kB_wr/s kB_ccwr/s iodelay  Command
08:58:18 PM  1006    217830   98.00    2.00    0.00    0.00  100.00    24    643.00      0.00  674268  599520   0.23  11181.00      0.00      0.00       0  perf_experiment

# Time        UID       PID    %usr %system  %guest   %wait    %CPU   CPU  minflt/s  majflt/s     VSZ     RSS   %MEM   kB_rd/s   kB_wr/s kB_ccwr/s iodelay  Command
08:58:19 PM  1006    217830   98.00    2.00    0.00    0.00  100.00    24    659.00      0.00  674400  599760   0.23  11191.00      0.00      0.00       0  perf_experiment

# Time        UID       PID    %usr %system  %guest   %wait    %CPU   CPU  minflt/s  majflt/s     VSZ     RSS   %MEM   kB_rd/s   kB_wr/s kB_ccwr/s iodelay  Command
08:58:20 PM  1006    217830   98.00    2.00    0.00    0.00  100.00    24    672.00      0.00  674668  599988   0.23  11152.00      0.00      0.00       0  perf_experiment

# Time        UID       PID    %usr %system  %guest   %wait    %CPU   CPU  minflt/s  majflt/s     VSZ     RSS   %MEM   kB_rd/s   kB_wr/s kB_ccwr/s iodelay  Command
08:58:21 PM  1006    217830   98.00    2.00    0.00    0.00  100.00    24    651.00      0.00  674932  600224   0.23  11175.00      0.00      0.00       0  perf_experiment

# Time        UID       PID    %usr %system  %guest   %wait    %CPU   CPU  minflt/s  majflt/s     VSZ     RSS   %MEM   kB_rd/s   kB_wr/s kB_ccwr/s iodelay  Command