4,Faster,10,5000000,2500000,512,2048,144355,4156413


resource usage stats

Linux 5.4.0-42-generic (arcon1) 	10/25/2020 	_x86_64_	(64 CPU)

# Time        UID       PID    %usr %system  %guest   %wait    %CPU   CPU  minflt/s  majflt/s     VSZ     RSS   %MEM   kB_rd/s   kB_wr/s kB_ccwr/s iodelay  Command
09:32:20 AM  1006    220851   77.00   22.00    0.00    0.00   99.00    36 144540.00      0.00  658276  583476   0.22      0.00      4.00      0.00       0  perf_experiment

# Time        UID       PID    %usr %system  %guest   %wait    %CPU   CPU  minflt/s  majflt/s     VSZ     RSS   %MEM   kB_rd/s   kB_wr/s kB_ccwr/s iodelay  Command
09:32:21 AM  1006    220851   87.00    2.00    0.00    0.00   89.00    36  33891.00      0.00  658648  583944   0.22      0.00 163840.00      0.00      11  perf_experiment

# Time        UID       PID    %usr %system  %guest   %wait    %CPU   CPU  minflt/s  majflt/s     VSZ     RSS   %MEM   kB_rd/s   kB_wr/s kB_ccwr/s iodelay  Command
09:32:22 AM  1006    220851   81.00    3.00    0.00    0.00   84.00    36  72175.00      0.00  659144  584364   0.22      0.00 229376.00      0.00      15  perf_experiment

# Time        UID       PID    %usr %system  %guest   %wait    %CPU   CPU  minflt/s  majflt/s     VSZ     RSS   %MEM   kB_rd/s   kB_wr/s kB_ccwr/s iodelay  Command
09:32:23 AM  1006    220851   80.00    6.00    0.00    0.00   86.00    36  66096.00      0.00  659516  584792   0.22      0.00 229376.00      0.00      15  perf_experiment

# Time        UID       PID    %usr %system  %guest   %wait    %CPU   CPU  minflt/s  majflt/s     VSZ     RSS   %MEM   kB_rd/s   kB_wr/s kB_ccwr/s iodelay  Command
09:32:24 AM  1006    220851   81.00    2.00    0.00    0.00   83.00    36  66074.00      0.00  659888  585180   0.22      0.00 229376.00      0.00      16  perf_experiment

# Time        UID       PID    %usr %system  %guest   %wait    %CPU   CPU  minflt/s  majflt/s     VSZ     RSS   %MEM   kB_rd/s   kB_wr/s kB_ccwr/s iodelay  Command
09:32:25 AM  1006    220851   80.00    3.00    0.00    0.00   83.00    36  58484.00      0.00  660384  585608   0.22      0.00 229376.00      0.00      17  perf_experiment

# Time        UID       PID    %usr %system  %guest   %wait    %CPU   CPU  minflt/s  majflt/s     VSZ     RSS   %MEM   kB_rd/s   kB_wr/s kB_ccwr/s iodelay  Command
09:32:26 AM  1006    220851   81.00    5.00    0.00    0.00   86.00    36  51451.00      0.00  660756  586004   0.22      0.00 229376.00      0.00      15  perf_experiment

# Time        UID       PID    %usr %system  %guest   %wait    %CPU   CPU  minflt/s  majflt/s     VSZ     RSS   %MEM   kB_rd/s   kB_wr/s kB_ccwr/s iodelay  Command
09:32:27 AM  1006    220851   81.00    2.00    0.00    0.00   83.00    36   8133.00      0.00  661128  586428   0.22      0.00 229376.00      0.00      17  perf_experiment

# Time        UID       PID    %usr %system  %guest   %wait    %CPU   CPU  minflt/s  majflt/s     VSZ     RSS   %MEM   kB_rd/s   kB_wr/s kB_ccwr/s iodelay  Command
09:32:28 AM  1006    220851   80.00    3.00    0.00    0.00   83.00    36  25146.00      0.00  661500  586828   0.22      0.00 229376.00      0.00      16  perf_experiment

# Time        UID       PID    %usr %system  %guest   %wait    %CPU   CPU  minflt/s  majflt/s     VSZ     RSS   %MEM   kB_rd/s   kB_wr/s kB_ccwr/s iodelay  Command
09:32:29 AM  1006    220851   83.00    3.00    0.00    0.00   86.00    36  49496.00      0.00  661996  587240   0.22      0.00 229376.00      0.00      15  perf_experiment

# Time        UID       PID    %usr %system  %guest   %wait    %CPU   CPU  minflt/s  majflt/s     VSZ     RSS   %MEM   kB_rd/s   kB_wr/s kB_ccwr/s iodelay  Command
09:32:30 AM  1006    220851   83.00    3.00    0.00    0.00   86.00    36  18342.00      0.00  662500  587704   0.22   1531.50 196608.00      0.00      14  perf_experiment

# Time        UID       PID    %usr %system  %guest   %wait    %CPU   CPU  minflt/s  majflt/s     VSZ     RSS   %MEM   kB_rd/s   kB_wr/s kB_ccwr/s iodelay  Command
09:32:31 AM  1006    220851   96.00    2.00    0.00    0.00   98.00    36   3376.00      0.00  662500  587760   0.22  17665.50  32768.00      0.00       2  perf_experiment

# Time        UID       PID    %usr %system  %guest   %wait    %CPU   CPU  minflt/s  majflt/s     VSZ     RSS   %MEM   kB_rd/s   kB_wr/s kB_ccwr/s iodelay  Command
09:32:32 AM  1006    220851   97.00    3.00    0.00    0.00  100.00    36   3599.00      0.00  662500  587760   0.22  18028.00      0.00      0.00       0  perf_experiment

# Time        UID       PID    %usr %system  %guest   %wait    %CPU   CPU  minflt/s  majflt/s     VSZ     RSS   %MEM   kB_rd/s   kB_wr/s kB_ccwr/s iodelay  Command
09:32:33 AM  1006    220851   93.00    3.00    0.00    0.00   96.00    36  26693.00      0.00  662500  587820   0.22  14035.00  65536.00      0.00       4  perf_experiment

# Time        UID       PID    %usr %system  %guest   %wait    %CPU   CPU  minflt/s  majflt/s     VSZ     RSS   %MEM   kB_rd/s   kB_wr/s kB_ccwr/s iodelay  Command
09:32:34 AM  1006    220851   91.00    2.00    0.00    0.00   93.00    36  24694.00      0.00  662756  587992   0.22  12273.50  98304.00      0.00       6  perf_experiment

# Time        UID       PID    %usr %system  %guest   %wait    %CPU   CPU  minflt/s  majflt/s     VSZ     RSS   %MEM   kB_rd/s   kB_wr/s kB_ccwr/s iodelay  Command
09:32:35 AM  1006    220851   97.00    3.00    0.00    0.00  100.00    36   1006.00      0.00  662756  588032   0.22  18124.50      0.00      0.00       0  perf_experiment

# Time        UID       PID    %usr %system  %guest   %wait    %CPU   CPU  minflt/s  majflt/s     VSZ     RSS   %MEM   kB_rd/s   kB_wr/s kB_ccwr/s iodelay  Command
09:32:36 AM  1006    220851   94.00    4.00    0.00    0.00   98.00    36   8816.00      0.00  662756  588104   0.22  17599.00  32768.00      0.00       3  perf_experiment

# Time        UID       PID    %usr %system  %guest   %wait    %CPU   CPU  minflt/s  majflt/s     VSZ     RSS   %MEM   kB_rd/s   kB_wr/s kB_ccwr/s iodelay  Command
09:32:37 AM  1006    220851   88.00    4.00    0.00    0.00   92.00    36  40727.00      0.00  663004  588264   0.22   8641.00 131072.00      0.00       8  perf_experiment

# Time        UID       PID    %usr %system  %guest   %wait    %CPU   CPU  minflt/s  majflt/s     VSZ     RSS   %MEM   kB_rd/s   kB_wr/s kB_ccwr/s iodelay  Command
09:32:38 AM  1006    220851   97.00    2.00    0.00    0.00   99.00    36     39.00      0.00  663136  588352   0.22  18169.50      0.00      0.00       0  perf_experiment

# Time        UID       PID    %usr %system  %guest   %wait    %CPU   CPU  minflt/s  majflt/s     VSZ     RSS   %MEM   kB_rd/s   kB_wr/s kB_ccwr/s iodelay  Command
09:32:39 AM  1006    220851   96.00    2.00    0.00    0.00   98.00    36   8201.00      0.00  663128  588364   0.22  17717.50  32768.00      0.00       2  perf_experiment

# Time        UID       PID    %usr %system  %guest   %wait    %CPU   CPU  minflt/s  majflt/s     VSZ     RSS   %MEM   kB_rd/s   kB_wr/s kB_ccwr/s iodelay  Command
09:32:40 AM  1006    220851   90.00    4.00    0.00    0.00   94.00    36  25778.00      0.00  663252  588544   0.22  10056.50  98304.00      0.00       6  perf_experiment

# Time        UID       PID    %usr %system  %guest   %wait    %CPU   CPU  minflt/s  majflt/s     VSZ     RSS   %MEM   kB_rd/s   kB_wr/s kB_ccwr/s iodelay  Command
09:32:41 AM  1006    220851   95.00    3.00    0.00    0.00   98.00    36   9463.00      0.00  663380  588648   0.22  17379.50  32768.00      0.00       3  perf_experiment

# Time        UID       PID    %usr %system  %guest   %wait    %CPU   CPU  minflt/s  majflt/s     VSZ     RSS   %MEM   kB_rd/s   kB_wr/s kB_ccwr/s iodelay  Command
09:32:42 AM  1006    220851   94.00    3.00    0.00    0.00   97.00    36   3851.00      0.00  663380  588680   0.22  18910.50  32768.00      0.00       2  perf_experiment

# Time        UID       PID    %usr %system  %guest   %wait    %CPU   CPU  minflt/s  majflt/s     VSZ     RSS   %MEM   kB_rd/s   kB_wr/s kB_ccwr/s iodelay  Command
09:32:43 AM  1006    220851   92.00    4.00    0.00    0.00   96.00    36  28526.00      0.00  663504  588740   0.22  14997.00  65536.00      0.00       4  perf_experiment

# Time        UID       PID    %usr %system  %guest   %wait    %CPU   CPU  minflt/s  majflt/s     VSZ     RSS   %MEM   kB_rd/s   kB_wr/s kB_ccwr/s iodelay  Command
09:32:44 AM  1006    220851   94.00    2.00    0.00    0.00   96.00    36  16613.00      0.00  663764  589024   0.22  12283.50  65536.00      0.00       5  perf_experiment

# Time        UID       PID    %usr %system  %guest   %wait    %CPU   CPU  minflt/s  majflt/s     VSZ     RSS   %MEM   kB_rd/s   kB_wr/s kB_ccwr/s iodelay  Command
09:32:45 AM  1006    220851   97.00    0.00    0.00    0.00   97.00    36   8221.00      0.00  663764  589036   0.22  17601.50  32768.00      0.00       2  perf_experiment

# Time        UID       PID    %usr %system  %guest   %wait    %CPU   CPU  minflt/s  majflt/s     VSZ     RSS   %MEM   kB_rd/s   kB_wr/s kB_ccwr/s iodelay  Command
09:32:46 AM  1006    220851   93.00    6.00    0.00    0.00   99.00    36   8205.00      0.00  663764  589036   0.22  17507.00  32768.00      0.00       2  perf_experiment

# Time        UID       PID    %usr %system  %guest   %wait    %CPU   CPU  minflt/s  majflt/s     VSZ     RSS   %MEM   kB_rd/s   kB_wr/s kB_ccwr/s iodelay  Command
09:32:47 AM  1006    220851   91.00    2.00    0.00    0.00   93.00    36  24750.00      0.00  663888  589208   0.22   9401.00  98304.00      0.00       6  perf_experiment

# Time        UID       PID    %usr %system  %guest   %wait    %CPU   CPU  minflt/s  majflt/s     VSZ     RSS   %MEM   kB_rd/s   kB_wr/s kB_ccwr/s iodelay  Command
09:32:48 AM  1006    220851   95.00    2.00    0.00    0.00   97.00    36   5667.00      0.00  664020  589280   0.22  17469.50  32768.00      0.00       3  perf_experiment

# Time        UID       PID    %usr %system  %guest   %wait    %CPU   CPU  minflt/s  majflt/s     VSZ     RSS   %MEM   kB_rd/s   kB_wr/s kB_ccwr/s iodelay  Command
09:32:49 AM  1006    220851   96.00    2.00    0.00    0.00   98.00    36    774.00      0.00  664020  589304   0.22  17539.00  32768.00      0.00       2  perf_experiment

# Time        UID       PID    %usr %system  %guest   %wait    %CPU   CPU  minflt/s  majflt/s     VSZ     RSS   %MEM   kB_rd/s   kB_wr/s kB_ccwr/s iodelay  Command
09:32:50 AM  1006    220851   89.00    4.00    0.00    0.00   93.00    36  22992.00      0.00  664144  589444   0.22  10869.00  98304.00      0.00       7  perf_experiment

# Time        UID       PID    %usr %system  %guest   %wait    %CPU   CPU  minflt/s  majflt/s     VSZ     RSS   %MEM   kB_rd/s   kB_wr/s kB_ccwr/s iodelay  Command
09:32:51 AM  1006    220851   95.00    3.00    0.00    0.00   98.00    36   8259.00      0.00  664280  589548   0.22  15837.00  32768.00      0.00       3  perf_experiment

# Time        UID       PID    %usr %system  %guest   %wait    %CPU   CPU  minflt/s  majflt/s     VSZ     RSS   %MEM   kB_rd/s   kB_wr/s kB_ccwr/s iodelay  Command
09:32:52 AM  1006    220851   96.00    1.00    0.00    0.00   97.00    36   8206.00      0.00  664280  589584   0.22  17625.50  32768.00      0.00       2  perf_experiment

# Time        UID       PID    %usr %system  %guest   %wait    %CPU   CPU  minflt/s  majflt/s     VSZ     RSS   %MEM   kB_rd/s   kB_wr/s kB_ccwr/s iodelay  Command
09:32:53 AM  1006    220851   98.00    2.00    0.00    0.00  100.00    36     23.00      0.00  664280  589584   0.22  17836.50      0.00      0.00       0  perf_experiment

# Time        UID       PID    %usr %system  %guest   %wait    %CPU   CPU  minflt/s  majflt/s     VSZ     RSS   %MEM   kB_rd/s   kB_wr/s kB_ccwr/s iodelay  Command
09:32:54 AM  1006    220851   88.00    3.00    0.00    0.00   91.00    36  32882.00      0.00  664528  589796   0.22   8894.00 131072.00      0.00       9  perf_experiment

# Time        UID       PID    %usr %system  %guest   %wait    %CPU   CPU  minflt/s  majflt/s     VSZ     RSS   %MEM   kB_rd/s   kB_wr/s kB_ccwr/s iodelay  Command
09:32:55 AM  1006    220851   97.00    2.00    0.00    0.00   99.00    36   8219.00      0.00  664528  589884   0.22  17675.00  32768.00      0.00       2  perf_experiment

# Time        UID       PID    %usr %system  %guest   %wait    %CPU   CPU  minflt/s  majflt/s     VSZ     RSS   %MEM   kB_rd/s   kB_wr/s kB_ccwr/s iodelay  Command
09:32:56 AM  1006    220851   99.00    0.00    0.00    0.00   99.00    36     23.00      0.00  664664  589884   0.22  18201.50      0.00      0.00       0  perf_experiment

# Time        UID       PID    %usr %system  %guest   %wait    %CPU   CPU  minflt/s  majflt/s     VSZ     RSS   %MEM   kB_rd/s   kB_wr/s kB_ccwr/s iodelay  Command
09:32:57 AM  1006    220851   88.00    4.00    0.00    0.00   92.00    36  36219.00      0.00  664788  590112   0.22   8583.50 131072.00      0.00       9  perf_experiment

# Time        UID       PID    %usr %system  %guest   %wait    %CPU   CPU  minflt/s  majflt/s     VSZ     RSS   %MEM   kB_rd/s   kB_wr/s kB_ccwr/s iodelay  Command
09:32:58 AM  1006    220851   96.00    1.00    0.00    0.00   97.00    36   8230.00      0.00  664924  590176   0.22  17723.00  32768.00      0.00       2  perf_experiment

# Time        UID       PID    %usr %system  %guest   %wait    %CPU   CPU  minflt/s  majflt/s     VSZ     RSS   %MEM   kB_rd/s   kB_wr/s kB_ccwr/s iodelay  Command
09:32:59 AM  1006    220851   98.00    2.00    0.00    0.00  100.00    36     47.00      0.00  664924  590200   0.22  18227.50      0.00      0.00       0  perf_experiment

# Time        UID       PID    %usr %system  %guest   %wait    %CPU   CPU  minflt/s  majflt/s     VSZ     RSS   %MEM   kB_rd/s   kB_wr/s kB_ccwr/s iodelay  Command
09:33:00 AM  1006    220851   94.00    2.00    0.00    0.00   96.00    36    132.00      0.00  665048  590280   0.22  13233.50  65536.00      0.00       5  perf_experiment

# Time        UID       PID    %usr %system  %guest   %wait    %CPU   CPU  minflt/s  majflt/s     VSZ     RSS   %MEM   kB_rd/s   kB_wr/s kB_ccwr/s iodelay  Command
09:33:01 AM  1006    220851   92.00    2.00    0.00    0.00   94.00    36  11352.00      0.00  665296  590584   0.22  13153.00  98304.00      0.00       6  perf_experiment

# Time        UID       PID    %usr %system  %guest   %wait    %CPU   CPU  minflt/s  majflt/s     VSZ     RSS   %MEM   kB_rd/s   kB_wr/s kB_ccwr/s iodelay  Command
09:33:02 AM  1006    220851   98.00    1.00    0.00    0.00   99.00    36   4902.00      0.00  665296  590584   0.22  18217.00      0.00      0.00       0  perf_experiment

# Time        UID       PID    %usr %system  %guest   %wait    %CPU   CPU  minflt/s  majflt/s     VSZ     RSS   %MEM   kB_rd/s   kB_wr/s kB_ccwr/s iodelay  Command
09:33:03 AM  1006    220851   95.00    2.00    0.00    0.00   97.00    36  11451.00      0.00  665296  590584   0.22  17513.50  32768.00      0.00       3  perf_experiment

# Time        UID       PID    %usr %system  %guest   %wait    %CPU   CPU  minflt/s  majflt/s     VSZ     RSS   %MEM   kB_rd/s   kB_wr/s kB_ccwr/s iodelay  Command
09:33:04 AM  1006    220851   91.00    1.00    0.00    0.00   92.00    36  10980.00      0.00  665420  590652   0.22   8640.00 131072.00      0.00       9  perf_experiment

# Time        UID       PID    %usr %system  %guest   %wait    %CPU   CPU  minflt/s  majflt/s     VSZ     RSS   %MEM   kB_rd/s   kB_wr/s kB_ccwr/s iodelay  Command
09:33:05 AM  1006    220851   97.00    2.00    0.00    0.00   99.00    36     29.00      0.00  665556  590760   0.22  18195.50      0.00      0.00       0  perf_experiment

# Time        UID       PID    %usr %system  %guest   %wait    %CPU   CPU  minflt/s  majflt/s     VSZ     RSS   %MEM   kB_rd/s   kB_wr/s kB_ccwr/s iodelay  Command
09:33:06 AM  1006    220851   96.00    2.00    0.00    0.00   98.00    36     17.00      0.00  665556  590760   0.22  17537.00  32768.00      0.00       2  perf_experiment

# Time        UID       PID    %usr %system  %guest   %wait    %CPU   CPU  minflt/s  majflt/s     VSZ     RSS   %MEM   kB_rd/s   kB_wr/s kB_ccwr/s iodelay  Command
09:33:07 AM  1006    220851   92.00    2.00    0.00    0.00   94.00    36  21745.00      0.00  665680  590976   0.22   9322.00  98304.00      0.00       7  perf_experiment

# Time        UID       PID    %usr %system  %guest   %wait    %CPU   CPU  minflt/s  majflt/s     VSZ     RSS   %MEM   kB_rd/s   kB_wr/s kB_ccwr/s iodelay  Command
09:33:08 AM  1006    220851   94.00    3.00    0.00    0.00   97.00    36     25.00      0.00  665816  590976   0.22  17520.50  32768.00      0.00       2  perf_experiment

# Time        UID       PID    %usr %system  %guest   %wait    %CPU   CPU  minflt/s  majflt/s     VSZ     RSS   %MEM   kB_rd/s   kB_wr/s kB_ccwr/s iodelay  Command
09:33:09 AM  1006    220851   95.00    3.00    0.00    0.00   98.00    36    783.00      0.00  665816  591140   0.22  17412.50  32768.00      0.00       3  perf_experiment

# Time        UID       PID    %usr %system  %guest   %wait    %CPU   CPU  minflt/s  majflt/s     VSZ     RSS   %MEM   kB_rd/s   kB_wr/s kB_ccwr/s iodelay  Command
09:33:10 AM  1006    220851   95.00    3.00    0.00    0.00   98.00    36   1709.00      0.00  665816  591168   0.22  16361.00  32768.00      0.00       2  perf_experiment

# Time        UID       PID    %usr %system  %guest   %wait    %CPU   CPU  minflt/s  majflt/s     VSZ     RSS   %MEM   kB_rd/s   kB_wr/s kB_ccwr/s iodelay  Command
09:33:11 AM  1006    220851   89.00    3.00    0.00    0.00   92.00    36  14666.00      0.00  666064  591384   0.22  10316.00  98304.00      0.00       7  perf_experiment

# Time        UID       PID    %usr %system  %guest   %wait    %CPU   CPU  minflt/s  majflt/s     VSZ     RSS   %MEM   kB_rd/s   kB_wr/s kB_ccwr/s iodelay  Command
09:33:12 AM  1006    220851   95.00    3.00    0.00    0.00   98.00    36   8216.00      0.00  666196  591424   0.22  17594.50  32768.00      0.00       2  perf_experiment

# Time        UID       PID    %usr %system  %guest   %wait    %CPU   CPU  minflt/s  majflt/s     VSZ     RSS   %MEM   kB_rd/s   kB_wr/s kB_ccwr/s iodelay  Command
09:33:13 AM  1006    220851   98.00    2.00    0.00    0.00  100.00    36     23.00      0.00  666188  591424   0.22  18282.50      0.00      0.00       0  perf_experiment

# Time        UID       PID    %usr %system  %guest   %wait    %CPU   CPU  minflt/s  majflt/s     VSZ     RSS   %MEM   kB_rd/s   kB_wr/s kB_ccwr/s iodelay  Command
09:33:14 AM  1006    220851   87.00    5.00    0.00    0.00   92.00    36  23088.00      0.00  666448  591692   0.22   8509.50 131072.00      0.00       9  perf_experiment

# Time        UID       PID    %usr %system  %guest   %wait    %CPU   CPU  minflt/s  majflt/s     VSZ     RSS   %MEM   kB_rd/s   kB_wr/s kB_ccwr/s iodelay  Command
09:33:15 AM  1006    220851   95.00    2.00    0.00    0.00   97.00    36  11828.00      0.00  666448  591724   0.22  17787.00  32768.00      0.00       2  perf_experiment

# Time        UID       PID    %usr %system  %guest   %wait    %CPU   CPU  minflt/s  majflt/s     VSZ     RSS   %MEM   kB_rd/s   kB_wr/s kB_ccwr/s iodelay  Command
09:33:16 AM  1006    220851   97.00    3.00    0.00    0.00  100.00    36      3.00      0.00  666448  591724   0.22  18505.00      0.00      0.00       0  perf_experiment

# Time        UID       PID    %usr %system  %guest   %wait    %CPU   CPU  minflt/s  majflt/s     VSZ     RSS   %MEM   kB_rd/s   kB_wr/s kB_ccwr/s iodelay  Command
09:33:17 AM  1006    220851   91.00    2.00    0.00    0.00   93.00    36  24657.00      0.00  666572  591860   0.22  11598.00  98304.00      0.00       7  perf_experiment

# Time        UID       PID    %usr %system  %guest   %wait    %CPU   CPU  minflt/s  majflt/s     VSZ     RSS   %MEM   kB_rd/s   kB_wr/s kB_ccwr/s iodelay  Command
09:33:18 AM  1006    220851   93.00    3.00    0.00    0.00   96.00    36   3237.00      0.00  666696  591916   0.22  14840.50  65536.00      0.00       4  perf_experiment

# Time        UID       PID    %usr %system  %guest   %wait    %CPU   CPU  minflt/s  majflt/s     VSZ     RSS   %MEM   kB_rd/s   kB_wr/s kB_ccwr/s iodelay  Command
09:33:19 AM  1006    220851   98.00    2.00    0.00    0.00  100.00    36     19.00      0.00  666696  592040   0.22  18308.00      0.00      0.00       0  perf_experiment

# Time        UID       PID    %usr %system  %guest   %wait    %CPU   CPU  minflt/s  majflt/s     VSZ     RSS   %MEM   kB_rd/s   kB_wr/s kB_ccwr/s iodelay  Command
09:33:20 AM  1006    220851   96.00    1.00    0.00    0.00   97.00    36     18.00      0.00  666828  592040   0.22  17500.50  32768.00      0.00       3  perf_experiment

# Time        UID       PID    %usr %system  %guest   %wait    %CPU   CPU  minflt/s  majflt/s     VSZ     RSS   %MEM   kB_rd/s   kB_wr/s kB_ccwr/s iodelay  Command
09:33:21 AM  1006    220851   89.00    3.00    0.00    0.00   92.00    36   6412.00      0.00  666952  592280   0.22   8716.50 131072.00      0.00       9  perf_experiment

# Time        UID       PID    %usr %system  %guest   %wait    %CPU   CPU  minflt/s  majflt/s     VSZ     RSS   %MEM   kB_rd/s   kB_wr/s kB_ccwr/s iodelay  Command
09:33:22 AM  1006    220851   99.00    1.00    0.00    0.00  100.00    36     21.00      0.00  667088  592280   0.22  18113.00      0.00      0.00       0  perf_experiment

# Time        UID       PID    %usr %system  %guest   %wait    %CPU   CPU  minflt/s  majflt/s     VSZ     RSS   %MEM   kB_rd/s   kB_wr/s kB_ccwr/s iodelay  Command
09:33:23 AM  1006    220851   94.00    3.00    0.00    0.00   97.00    36     35.00      0.00  667088  592280   0.22  17587.50  32768.00      0.00       2  perf_experiment

# Time        UID       PID    %usr %system  %guest   %wait    %CPU   CPU  minflt/s  majflt/s     VSZ     RSS   %MEM   kB_rd/s   kB_wr/s kB_ccwr/s iodelay  Command
09:33:24 AM  1006    220851   88.00    3.00    0.00    0.00   91.00    36    186.00      0.00  667336  592572   0.22   8552.00 131072.00      0.00      10  perf_experiment

# Time        UID       PID    %usr %system  %guest   %wait    %CPU   CPU  minflt/s  majflt/s     VSZ     RSS   %MEM   kB_rd/s   kB_wr/s kB_ccwr/s iodelay  Command
09:33:25 AM  1006    220851   98.00    2.00    0.00    0.00  100.00    36    916.00      0.00  667336  592636   0.22  18150.50      0.00      0.00       0  perf_experiment

# Time        UID       PID    %usr %system  %guest   %wait    %CPU   CPU  minflt/s  majflt/s     VSZ     RSS   %MEM   kB_rd/s   kB_wr/s kB_ccwr/s iodelay  Command
09:33:26 AM  1006    220851   94.00    4.00    0.00    0.00   98.00    36  12100.00      0.00  667336  592692   0.22  17467.50  32768.00      0.00       2  perf_experiment

# Time        UID       PID    %usr %system  %guest   %wait    %CPU   CPU  minflt/s  majflt/s     VSZ     RSS   %MEM   kB_rd/s   kB_wr/s kB_ccwr/s iodelay  Command
09:33:27 AM  1006    220851   93.00    3.00    0.00    0.00   96.00    36  20967.00      0.00  667452  592744   0.22  14662.00  65536.00      0.00       2  perf_experiment

# Time        UID       PID    %usr %system  %guest   %wait    %CPU   CPU  minflt/s  majflt/s     VSZ     RSS   %MEM   kB_rd/s   kB_wr/s kB_ccwr/s iodelay  Command
09:33:28 AM  1006    220851   94.00    1.00    0.00    0.00   95.00    36    187.00      0.00  667708  592860   0.22  11999.50  65536.00      0.00       7  perf_experiment

# Time        UID       PID    %usr %system  %guest   %wait    %CPU   CPU  minflt/s  majflt/s     VSZ     RSS   %MEM   kB_rd/s   kB_wr/s kB_ccwr/s iodelay  Command
09:33:29 AM  1006    220851   96.00    1.00    0.00    0.00   97.00    36     13.00      0.00  667708  592860   0.22  17592.50  32768.00      0.00       2  perf_experiment

# Time        UID       PID    %usr %system  %guest   %wait    %CPU   CPU  minflt/s  majflt/s     VSZ     RSS   %MEM   kB_rd/s   kB_wr/s kB_ccwr/s iodelay  Command
09:33:30 AM  1006    220851   97.00    4.00    0.00    0.00  101.00    36     16.00      0.00  667708  592860   0.22  18137.50      0.00      0.00       0  perf_experiment

# Time        UID       PID    %usr %system  %guest   %wait    %CPU   CPU  minflt/s  majflt/s     VSZ     RSS   %MEM   kB_rd/s   kB_wr/s kB_ccwr/s iodelay  Command
09:33:31 AM  1006    220851   88.00    2.00    0.00    0.00   90.00    36    188.00      0.00  667968  593188   0.22   8470.00 131072.00      0.00      10  perf_experiment

# Time        UID       PID    %usr %system  %guest   %wait    %CPU   CPU  minflt/s  majflt/s     VSZ     RSS   %MEM   kB_rd/s   kB_wr/s kB_ccwr/s iodelay  Command
09:33:32 AM  1006    220851   96.00    1.00    0.00    0.00   97.00    36   7552.00      0.00  667968  593252   0.22  17490.00  32768.00      0.00       2  perf_experiment

# Time        UID       PID    %usr %system  %guest   %wait    %CPU   CPU  minflt/s  majflt/s     VSZ     RSS   %MEM   kB_rd/s   kB_wr/s kB_ccwr/s iodelay  Command
09:33:33 AM  1006    220851   97.00    3.00    0.00    0.00  100.00    36   4921.00      0.00  668096  593452   0.22  18074.00      0.00      0.00       0  perf_experiment

# Time        UID       PID    %usr %system  %guest   %wait    %CPU   CPU  minflt/s  majflt/s     VSZ     RSS   %MEM   kB_rd/s   kB_wr/s kB_ccwr/s iodelay  Command
09:33:34 AM  1006    220851   91.00    2.00    0.00    0.00   93.00    36   1084.00      0.00  668224  593460   0.22  10834.50  98304.00      0.00       7  perf_experiment

# Time        UID       PID    %usr %system  %guest   %wait    %CPU   CPU  minflt/s  majflt/s     VSZ     RSS   %MEM   kB_rd/s   kB_wr/s kB_ccwr/s iodelay  Command
09:33:35 AM  1006    220851   93.00    3.00    0.00    0.00   96.00    36  16439.00      0.00  668224  593528   0.23  15331.00  65536.00      0.00       5  perf_experiment

# Time        UID       PID    %usr %system  %guest   %wait    %CPU   CPU  minflt/s  majflt/s     VSZ     RSS   %MEM   kB_rd/s   kB_wr/s kB_ccwr/s iodelay  Command
09:33:36 AM  1006    220851   98.00    2.00    0.00    0.00  100.00    36     20.00      0.00  668348  593592   0.23  18225.00      0.00      0.00       0  perf_experiment

# Time        UID       PID    %usr %system  %guest   %wait    %CPU   CPU  minflt/s  majflt/s     VSZ     RSS   %MEM   kB_rd/s   kB_wr/s kB_ccwr/s iodelay  Command
09:33:37 AM  1006    220851   96.00    1.00    0.00    0.00   97.00    36   8208.00      0.00  668348  593616   0.23  17522.00  32768.00      0.00       2  perf_experiment

# Time        UID       PID    %usr %system  %guest   %wait    %CPU   CPU  minflt/s  majflt/s     VSZ     RSS   %MEM   kB_rd/s   kB_wr/s kB_ccwr/s iodelay  Command
09:33:38 AM  1006    220851   88.00    4.00    0.00    0.00   92.00    36  22705.00      0.00  668600  593836   0.23   8586.50 131072.00      0.00       9  perf_experiment

# Time        UID       PID    %usr %system  %guest   %wait    %CPU   CPU  minflt/s  majflt/s     VSZ     RSS   %MEM   kB_rd/s   kB_wr/s kB_ccwr/s iodelay  Command
09:33:39 AM  1006    220851   96.00    3.00    0.00    0.00   99.00    36     16.00      0.00  668600  593836   0.23  18150.00      0.00      0.00       0  perf_experiment

# Time        UID       PID    %usr %system  %guest   %wait    %CPU   CPU  minflt/s  majflt/s     VSZ     RSS   %MEM   kB_rd/s   kB_wr/s kB_ccwr/s iodelay  Command
09:33:40 AM  1006    220851   96.00    2.00    0.00    0.00   98.00    36     21.00      0.00  668600  593836   0.23  17583.50  32768.00      0.00       2  perf_experiment

# Time        UID       PID    %usr %system  %guest   %wait    %CPU   CPU  minflt/s  majflt/s     VSZ     RSS   %MEM   kB_rd/s   kB_wr/s kB_ccwr/s iodelay  Command
09:33:41 AM  1006    220851   88.00    3.00    0.00    0.00   91.00    36    165.00      0.00  668848  594040   0.23   8535.50 131072.00      0.00      10  perf_experiment

# Time        UID       PID    %usr %system  %guest   %wait    %CPU   CPU  minflt/s  majflt/s     VSZ     RSS   %MEM   kB_rd/s   kB_wr/s kB_ccwr/s iodelay  Command
09:33:42 AM  1006    220851   96.00    4.00    0.00    0.00  100.00    36     45.00      0.00  668980  594216   0.23  18587.50      0.00      0.00       0  perf_experiment

# Time        UID       PID    %usr %system  %guest   %wait    %CPU   CPU  minflt/s  majflt/s     VSZ     RSS   %MEM   kB_rd/s   kB_wr/s kB_ccwr/s iodelay  Command
09:33:43 AM  1006    220851   96.00    1.00    0.00    0.00   97.00    36      5.00      0.00  668980  594216   0.23  17964.00  32768.00      0.00       2  perf_experiment

# Time        UID       PID    %usr %system  %guest   %wait    %CPU   CPU  minflt/s  majflt/s     VSZ     RSS   %MEM   kB_rd/s   kB_wr/s kB_ccwr/s iodelay  Command
09:33:44 AM  1006    220851   93.00    2.00    0.00    0.00   95.00    36     53.00      0.00  668980  594308   0.23  13404.50  65536.00      0.00       5  perf_experiment

# Time        UID       PID    %usr %system  %guest   %wait    %CPU   CPU  minflt/s  majflt/s     VSZ     RSS   %MEM   kB_rd/s   kB_wr/s kB_ccwr/s iodelay  Command
09:33:45 AM  1006    220851   93.00    3.00    0.00    0.00   96.00    36    107.00      0.00  669232  594476   0.23  13598.00  65536.00      0.00       4  perf_experiment

# Time        UID       PID    %usr %system  %guest   %wait    %CPU   CPU  minflt/s  majflt/s     VSZ     RSS   %MEM   kB_rd/s   kB_wr/s kB_ccwr/s iodelay  Command
09:33:46 AM  1006    220851   96.00    2.00    0.00    0.00   98.00    36   1474.00      0.00  669232  594500   0.23  17494.00  32768.00      0.00       2  perf_experiment

# Time        UID       PID    %usr %system  %guest   %wait    %CPU   CPU  minflt/s  majflt/s     VSZ     RSS   %MEM   kB_rd/s   kB_wr/s kB_ccwr/s iodelay  Command
09:33:47 AM  1006    220851   95.00    3.00    0.00    0.00   98.00    36   6026.00      0.00  669232  594532   0.23  17594.00  32768.00      0.00       3  perf_experiment

# Time        UID       PID    %usr %system  %guest   %wait    %CPU   CPU  minflt/s  majflt/s     VSZ     RSS   %MEM   kB_rd/s   kB_wr/s kB_ccwr/s iodelay  Command