1,Faster,10,5000000,2500000,512,2048,267567,2242426


resource usage stats

Linux 5.4.0-42-generic (arcon1) 	10/25/2020 	_x86_64_	(64 CPU)

# Time        UID       PID    %usr %system  %guest   %wait    %CPU   CPU  minflt/s  majflt/s     VSZ     RSS   %MEM   kB_rd/s   kB_wr/s kB_ccwr/s iodelay  Command
12:46:32 AM  1006    218237   77.00   21.00    0.00    0.00   98.00    62 144439.00      0.00  590180  582748   0.22      0.00      4.00      0.00       0  perf_experiment

# Time        UID       PID    %usr %system  %guest   %wait    %CPU   CPU  minflt/s  majflt/s     VSZ     RSS   %MEM   kB_rd/s   kB_wr/s kB_ccwr/s iodelay  Command
12:46:33 AM  1006    218237   77.00    2.00    0.00    0.00   79.00    62      3.00      0.00  590180  582748   0.22      0.00 294912.00      0.00      21  perf_experiment

# Time        UID       PID    %usr %system  %guest   %wait    %CPU   CPU  minflt/s  majflt/s     VSZ     RSS   %MEM   kB_rd/s   kB_wr/s kB_ccwr/s iodelay  Command
12:46:34 AM  1006    218237   76.00    3.00    0.00    0.00   79.00    62      1.00      0.00  590180  582748   0.22      0.00 294912.00      0.00      20  perf_experiment

# Time        UID       PID    %usr %system  %guest   %wait    %CPU   CPU  minflt/s  majflt/s     VSZ     RSS   %MEM   kB_rd/s   kB_wr/s kB_ccwr/s iodelay  Command
12:46:35 AM  1006    218237   79.00    1.00    0.00    0.00   80.00    62      1.00      0.00  590180  582748   0.22      0.00 262144.00      0.00      21  perf_experiment

# Time        UID       PID    %usr %system  %guest   %wait    %CPU   CPU  minflt/s  majflt/s     VSZ     RSS   %MEM   kB_rd/s   kB_wr/s kB_ccwr/s iodelay  Command
12:46:36 AM  1006    218237   75.00    3.00    0.00    0.00   78.00    62      3.00      0.00  590180  583136   0.22      0.00 294912.00      0.00      23  perf_experiment

# Time        UID       PID    %usr %system  %guest   %wait    %CPU   CPU  minflt/s  majflt/s     VSZ     RSS   %MEM   kB_rd/s   kB_wr/s kB_ccwr/s iodelay  Command
12:46:37 AM  1006    218237   76.00    3.00    0.00    0.00   79.00    62      0.00      0.00  590180  583136   0.22      0.00 294912.00      0.00      21  perf_experiment

# Time        UID       PID    %usr %system  %guest   %wait    %CPU   CPU  minflt/s  majflt/s     VSZ     RSS   %MEM   kB_rd/s   kB_wr/s kB_ccwr/s iodelay  Command
12:46:38 AM  1006    218237   77.00    3.00    0.00    0.00   80.00    62      1.00      0.00  590180  583136   0.22      0.00 294912.00      0.00      19  perf_experiment

# Time        UID       PID    %usr %system  %guest   %wait    %CPU   CPU  minflt/s  majflt/s     VSZ     RSS   %MEM   kB_rd/s   kB_wr/s kB_ccwr/s iodelay  Command
12:46:39 AM  1006    218237   76.00    1.00    0.00    0.00   77.00    62      0.00      0.00  590180  583136   0.22      0.00 262144.00      0.00      24  perf_experiment

# Time        UID       PID    %usr %system  %guest   %wait    %CPU   CPU  minflt/s  majflt/s     VSZ     RSS   %MEM   kB_rd/s   kB_wr/s kB_ccwr/s iodelay  Command
12:46:40 AM  1006    218237   77.00    2.00    0.00    0.00   79.00    62      3.00      0.00  590316  583136   0.22      0.00 294912.00      0.00      20  perf_experiment

# Time        UID       PID    %usr %system  %guest   %wait    %CPU   CPU  minflt/s  majflt/s     VSZ     RSS   %MEM   kB_rd/s   kB_wr/s kB_ccwr/s iodelay  Command
12:46:41 AM  1006    218237   78.00    0.00    0.00    0.00   78.00    62      0.00      0.00  590316  583136   0.22      0.00 262144.00      0.00      22  perf_experiment

# Time        UID       PID    %usr %system  %guest   %wait    %CPU   CPU  minflt/s  majflt/s     VSZ     RSS   %MEM   kB_rd/s   kB_wr/s kB_ccwr/s iodelay  Command
12:46:42 AM  1006    218237   75.00    3.00    0.00    0.00   78.00    62      1.00      0.00  590316  583136   0.22      0.00 294912.00      0.00      23  perf_experiment

# Time        UID       PID    %usr %system  %guest   %wait    %CPU   CPU  minflt/s  majflt/s     VSZ     RSS   %MEM   kB_rd/s   kB_wr/s kB_ccwr/s iodelay  Command
12:46:43 AM  1006    218237   78.00    1.00    0.00    0.00   79.00    62      0.00      0.00  590316  583136   0.22      0.00 262144.00      0.00      20  perf_experiment

# Time        UID       PID    %usr %system  %guest   %wait    %CPU   CPU  minflt/s  majflt/s     VSZ     RSS   %MEM   kB_rd/s   kB_wr/s kB_ccwr/s iodelay  Command
12:46:44 AM  1006    218237   76.00    2.00    0.00    0.00   78.00    62      2.00      0.00  590316  583136   0.22      0.00 294912.00      0.00      22  perf_experiment

# Time        UID       PID    %usr %system  %guest   %wait    %CPU   CPU  minflt/s  majflt/s     VSZ     RSS   %MEM   kB_rd/s   kB_wr/s kB_ccwr/s iodelay  Command
12:46:45 AM  1006    218237   78.00    1.00    0.00    0.00   79.00    62      0.00      0.00  590316  583136   0.22      0.00 294912.00      0.00      21  perf_experiment

# Time        UID       PID    %usr %system  %guest   %wait    %CPU   CPU  minflt/s  majflt/s     VSZ     RSS   %MEM   kB_rd/s   kB_wr/s kB_ccwr/s iodelay  Command
12:46:46 AM  1006    218237   79.00    2.00    0.00    0.00   81.00    62      1.00      0.00  590316  583136   0.22      0.00 262144.00      0.00      20  perf_experiment

# Time        UID       PID    %usr %system  %guest   %wait    %CPU   CPU  minflt/s  majflt/s     VSZ     RSS   %MEM   kB_rd/s   kB_wr/s kB_ccwr/s iodelay  Command
12:46:47 AM  1006    218237   77.00    1.00    0.00    0.00   78.00    62      0.00      0.00  590316  583136   0.22      0.00 294912.00      0.00      21  perf_experiment

# Time        UID       PID    %usr %system  %guest   %wait    %CPU   CPU  minflt/s  majflt/s     VSZ     RSS   %MEM   kB_rd/s   kB_wr/s kB_ccwr/s iodelay  Command
12:46:48 AM  1006    218237   77.00    2.00    0.00    0.00   79.00    62      2.00      0.00  590316  583136   0.22      0.00 294912.00      0.00      20  perf_experiment

# Time        UID       PID    %usr %system  %guest   %wait    %CPU   CPU  minflt/s  majflt/s     VSZ     RSS   %MEM   kB_rd/s   kB_wr/s kB_ccwr/s iodelay  Command
12:46:49 AM  1006    218237   77.00    2.00    0.00    0.00   79.00    62      0.00      0.00  590316  583136   0.22      0.00 262144.00      0.00      22  perf_experiment

# Time        UID       PID    %usr %system  %guest   %wait    %CPU   CPU  minflt/s  majflt/s     VSZ     RSS   %MEM   kB_rd/s   kB_wr/s kB_ccwr/s iodelay  Command
12:46:50 AM  1006    218237   76.00    2.00    0.00    0.00   78.00    62      1.00      0.00  590316  583136   0.22      0.00 294912.00      0.00      21  perf_experiment

# Time        UID       PID    %usr %system  %guest   %wait    %CPU   CPU  minflt/s  majflt/s     VSZ     RSS   %MEM   kB_rd/s   kB_wr/s kB_ccwr/s iodelay  Command
12:46:51 AM  1006    218237   78.00    2.00    0.00    0.00   80.00    62      0.00      0.00  590316  583136   0.22      0.00 262144.00      0.00      22  perf_experiment

# Time        UID       PID    %usr %system  %guest   %wait    %CPU   CPU  minflt/s  majflt/s     VSZ     RSS   %MEM   kB_rd/s   kB_wr/s kB_ccwr/s iodelay  Command
12:46:52 AM  1006    218237   75.00    2.00    0.00    0.00   77.00    62      2.00      0.00  590316  583136   0.22      0.00 294912.00      0.00      22  perf_experiment

# Time        UID       PID    %usr %system  %guest   %wait    %CPU   CPU  minflt/s  majflt/s     VSZ     RSS   %MEM   kB_rd/s   kB_wr/s kB_ccwr/s iodelay  Command
12:46:53 AM  1006    218237   79.00    1.00    0.00    0.00   80.00    62      0.00      0.00  590316  583136   0.22      0.00 262144.00      0.00      20  perf_experiment

# Time        UID       PID    %usr %system  %guest   %wait    %CPU   CPU  minflt/s  majflt/s     VSZ     RSS   %MEM   kB_rd/s   kB_wr/s kB_ccwr/s iodelay  Command
12:46:54 AM  1006    218237   77.00    1.00    0.00    0.00   78.00    62      0.00      0.00  590316  583136   0.22      0.00 294912.00      0.00      22  perf_experiment

# Time        UID       PID    %usr %system  %guest   %wait    %CPU   CPU  minflt/s  majflt/s     VSZ     RSS   %MEM   kB_rd/s   kB_wr/s kB_ccwr/s iodelay  Command
12:46:55 AM  1006    218237   78.00    2.00    0.00    0.00   80.00    62      1.00      0.00  590316  583136   0.22      0.00 262144.00      0.00      20  perf_experiment

# Time        UID       PID    %usr %system  %guest   %wait    %CPU   CPU  minflt/s  majflt/s     VSZ     RSS   %MEM   kB_rd/s   kB_wr/s kB_ccwr/s iodelay  Command
12:46:56 AM  1006    218237   76.00    2.00    0.00    0.00   78.00    62      2.00      0.00  590316  583136   0.22      0.00 294912.00      0.00      22  perf_experiment

# Time        UID       PID    %usr %system  %guest   %wait    %CPU   CPU  minflt/s  majflt/s     VSZ     RSS   %MEM   kB_rd/s   kB_wr/s kB_ccwr/s iodelay  Command
12:46:57 AM  1006    218237   79.00    2.00    0.00    0.00   81.00    62      0.00      0.00  590316  583136   0.22      0.00 262144.00      0.00      19  perf_experiment

# Time        UID       PID    %usr %system  %guest   %wait    %CPU   CPU  minflt/s  majflt/s     VSZ     RSS   %MEM   kB_rd/s   kB_wr/s kB_ccwr/s iodelay  Command
12:46:58 AM  1006    218237   75.00    3.00    0.00    0.00   78.00    62      0.00      0.00  590316  583136   0.22      0.00 294912.00      0.00      23  perf_experiment

# Time        UID       PID    %usr %system  %guest   %wait    %CPU   CPU  minflt/s  majflt/s     VSZ     RSS   %MEM   kB_rd/s   kB_wr/s kB_ccwr/s iodelay  Command
12:46:59 AM  1006    218237   78.00    3.00    0.00    0.00   81.00    62      0.00      0.00  590316  583136   0.22      0.00 262144.00      0.00      19  perf_experiment

# Time        UID       PID    %usr %system  %guest   %wait    %CPU   CPU  minflt/s  majflt/s     VSZ     RSS   %MEM   kB_rd/s   kB_wr/s kB_ccwr/s iodelay  Command
12:47:00 AM  1006    218237   76.00    2.00    0.00    0.00   78.00    62      0.00      0.00  590316  583136   0.22      0.00 294912.00      0.00      20  perf_experiment

# Time        UID       PID    %usr %system  %guest   %wait    %CPU   CPU  minflt/s  majflt/s     VSZ     RSS   %MEM   kB_rd/s   kB_wr/s kB_ccwr/s iodelay  Command
12:47:01 AM  1006    218237   78.00    1.00    0.00    0.00   79.00    62      0.00      0.00  590316  583136   0.22      0.00 262144.00      0.00      23  perf_experiment

# Time        UID       PID    %usr %system  %guest   %wait    %CPU   CPU  minflt/s  majflt/s     VSZ     RSS   %MEM   kB_rd/s   kB_wr/s kB_ccwr/s iodelay  Command
12:47:02 AM  1006    218237   77.00    3.00    0.00    0.00   80.00    62      0.00      0.00  590316  583136   0.22      0.00 262144.00      0.00      20  perf_experiment

# Time        UID       PID    %usr %system  %guest   %wait    %CPU   CPU  minflt/s  majflt/s     VSZ     RSS   %MEM   kB_rd/s   kB_wr/s kB_ccwr/s iodelay  Command
12:47:03 AM  1006    218237   77.00    1.00    0.00    0.00   78.00    62      3.00      0.00  590316  583136   0.22      0.00 294912.00      0.00      22  perf_experiment

# Time        UID       PID    %usr %system  %guest   %wait    %CPU   CPU  minflt/s  majflt/s     VSZ     RSS   %MEM   kB_rd/s   kB_wr/s kB_ccwr/s iodelay  Command
12:47:04 AM  1006    218237   78.00    2.00    0.00    0.00   80.00    62      0.00      0.00  590316  583136   0.22      0.00 262144.00      0.00      19  perf_experiment

# Time        UID       PID    %usr %system  %guest   %wait    %CPU   CPU  minflt/s  majflt/s     VSZ     RSS   %MEM   kB_rd/s   kB_wr/s kB_ccwr/s iodelay  Command
12:47:05 AM  1006    218237   79.00    1.00    0.00    0.00   80.00    62      0.00      0.00  590316  583136   0.22      0.00 294912.00      0.00      20  perf_experiment

# Time        UID       PID    %usr %system  %guest   %wait    %CPU   CPU  minflt/s  majflt/s     VSZ     RSS   %MEM   kB_rd/s   kB_wr/s kB_ccwr/s iodelay  Command
12:47:06 AM  1006    218237   78.00    1.00    0.00    0.00   79.00    62      0.00      0.00  590316  583136   0.22      0.00 262144.00      0.00      22  perf_experiment

# Time        UID       PID    %usr %system  %guest   %wait    %CPU   CPU  minflt/s  majflt/s     VSZ     RSS   %MEM   kB_rd/s   kB_wr/s kB_ccwr/s iodelay  Command
12:47:07 AM  1006    218237   79.00    1.00    0.00    0.00   80.00    62      2.00      0.00  590316  583136   0.22      0.00 262144.00      0.00      19  perf_experiment

# Time        UID       PID    %usr %system  %guest   %wait    %CPU   CPU  minflt/s  majflt/s     VSZ     RSS   %MEM   kB_rd/s   kB_wr/s kB_ccwr/s iodelay  Command
12:47:08 AM  1006    218237   78.00    2.00    0.00    0.00   80.00    62      0.00      0.00  590316  583136   0.22      0.00 294912.00      0.00      19  perf_experiment

# Time        UID       PID    %usr %system  %guest   %wait    %CPU   CPU  minflt/s  majflt/s     VSZ     RSS   %MEM   kB_rd/s   kB_wr/s kB_ccwr/s iodelay  Command
12:47:09 AM  1006    218237   78.00    1.00    0.00    0.00   79.00    62      0.00      0.00  590316  583136   0.22      0.00 262144.00      0.00      22  perf_experiment

# Time        UID       PID    %usr %system  %guest   %wait    %CPU   CPU  minflt/s  majflt/s     VSZ     RSS   %MEM   kB_rd/s   kB_wr/s kB_ccwr/s iodelay  Command
12:47:10 AM  1006    218237   78.00    1.00    0.00    0.00   79.00    62      0.00      0.00  590316  583136   0.22      0.00 262144.00      0.00      20  perf_experiment

# Time        UID       PID    %usr %system  %guest   %wait    %CPU   CPU  minflt/s  majflt/s     VSZ     RSS   %MEM   kB_rd/s   kB_wr/s kB_ccwr/s iodelay  Command
12:47:11 AM  1006    218237   80.00    2.00    0.00    0.00   82.00    62      2.00      0.00  590316  583136   0.22      0.00 262144.00      0.00      20  perf_experiment

# Time        UID       PID    %usr %system  %guest   %wait    %CPU   CPU  minflt/s  majflt/s     VSZ     RSS   %MEM   kB_rd/s   kB_wr/s kB_ccwr/s iodelay  Command
12:47:12 AM  1006    218237   77.00    2.00    0.00    0.00   79.00    62      1.00      0.00  590316  583136   0.22      0.00 262144.00      0.00      20  perf_experiment

# Time        UID       PID    %usr %system  %guest   %wait    %CPU   CPU  minflt/s  majflt/s     VSZ     RSS   %MEM   kB_rd/s   kB_wr/s kB_ccwr/s iodelay  Command
12:47:13 AM  1006    218237   78.22    0.99    0.00    0.00   79.21    62      0.00      0.00  590316  583136   0.22      0.00 291992.08      0.00      20  perf_experiment

# Time        UID       PID    %usr %system  %guest   %wait    %CPU   CPU  minflt/s  majflt/s     VSZ     RSS   %MEM   kB_rd/s   kB_wr/s kB_ccwr/s iodelay  Command
12:47:14 AM  1006    218237   77.00    1.00    0.00    0.00   78.00    62      0.00      0.00  590316  583136   0.22      0.00 262144.00      0.00      20  perf_experiment

# Time        UID       PID    %usr %system  %guest   %wait    %CPU   CPU  minflt/s  majflt/s     VSZ     RSS   %MEM   kB_rd/s   kB_wr/s kB_ccwr/s iodelay  Command
12:47:15 AM  1006    218237   78.00    2.00    0.00    0.00   80.00    62      2.00      0.00  590316  583136   0.22      0.00 262144.00      0.00      23  perf_experiment

# Time        UID       PID    %usr %system  %guest   %wait    %CPU   CPU  minflt/s  majflt/s     VSZ     RSS   %MEM   kB_rd/s   kB_wr/s kB_ccwr/s iodelay  Command
12:47:16 AM  1006    218237   77.00    3.00    0.00    0.00   80.00    62      0.00      0.00  590316  583136   0.22      0.00 262144.00      0.00      19  perf_experiment

# Time        UID       PID    %usr %system  %guest   %wait    %CPU   CPU  minflt/s  majflt/s     VSZ     RSS   %MEM   kB_rd/s   kB_wr/s kB_ccwr/s iodelay  Command
12:47:17 AM  1006    218237   80.00    1.00    0.00    0.00   81.00    62      0.00      0.00  590316  583136   0.22      0.00 262144.00      0.00      20  perf_experiment

# Time        UID       PID    %usr %system  %guest   %wait    %CPU   CPU  minflt/s  majflt/s     VSZ     RSS   %MEM   kB_rd/s   kB_wr/s kB_ccwr/s iodelay  Command
12:47:18 AM  1006    218237   79.00    1.00    0.00    0.00   80.00    62     23.00      0.00  657916  583136   0.22    416.50 262144.00      0.00      19  perf_experiment

# Time        UID       PID    %usr %system  %guest   %wait    %CPU   CPU  minflt/s  majflt/s     VSZ     RSS   %MEM   kB_rd/s   kB_wr/s kB_ccwr/s iodelay  Command
12:47:19 AM  1006    218237   98.00    3.00    0.00    0.00  101.00    62     16.00      0.00  658052  583136   0.22  19279.00      0.00      0.00       0  perf_experiment

# Time        UID       PID    %usr %system  %guest   %wait    %CPU   CPU  minflt/s  majflt/s     VSZ     RSS   %MEM   kB_rd/s   kB_wr/s kB_ccwr/s iodelay  Command
12:47:20 AM  1006    218237   96.00    3.00    0.00    0.00   99.00    62      0.00      0.00  658052  583136   0.22  19232.00      0.00      0.00       0  perf_experiment

# Time        UID       PID    %usr %system  %guest   %wait    %CPU   CPU  minflt/s  majflt/s     VSZ     RSS   %MEM   kB_rd/s   kB_wr/s kB_ccwr/s iodelay  Command
12:47:21 AM  1006    218237   99.00    1.00    0.00    0.00  100.00    62      0.00      0.00  658052  583136   0.22  19258.50      0.00      0.00       0  perf_experiment

# Time        UID       PID    %usr %system  %guest   %wait    %CPU   CPU  minflt/s  majflt/s     VSZ     RSS   %MEM   kB_rd/s   kB_wr/s kB_ccwr/s iodelay  Command
12:47:22 AM  1006    218237   99.00    2.00    0.00    0.00  101.00    62   4709.00      0.00  658052  583360   0.22  19261.50      0.00      0.00       0  perf_experiment

# Time        UID       PID    %usr %system  %guest   %wait    %CPU   CPU  minflt/s  majflt/s     VSZ     RSS   %MEM   kB_rd/s   kB_wr/s kB_ccwr/s iodelay  Command
12:47:23 AM  1006    218237   97.00    3.00    0.00    0.00  100.00    62   4032.00      0.00  658052  583360   0.22  19219.00      0.00      0.00       0  perf_experiment

# Time        UID       PID    %usr %system  %guest   %wait    %CPU   CPU  minflt/s  majflt/s     VSZ     RSS   %MEM   kB_rd/s   kB_wr/s kB_ccwr/s iodelay  Command
12:47:24 AM  1006    218237   97.00    3.00    0.00    0.00  100.00    62    675.00      0.00  658052  583360   0.22  19255.50      0.00      0.00       0  perf_experiment

# Time        UID       PID    %usr %system  %guest   %wait    %CPU   CPU  minflt/s  majflt/s     VSZ     RSS   %MEM   kB_rd/s   kB_wr/s kB_ccwr/s iodelay  Command
12:47:25 AM  1006    218237   98.00    1.00    0.00    0.00   99.00    62    239.00      0.00  658052  583360   0.22  19333.50      0.00      0.00       0  perf_experiment

# Time        UID       PID    %usr %system  %guest   %wait    %CPU   CPU  minflt/s  majflt/s     VSZ     RSS   %MEM   kB_rd/s   kB_wr/s kB_ccwr/s iodelay  Command
12:47:26 AM  1006    218237   97.00    3.00    0.00    0.00  100.00    62    164.00      0.00  658052  583360   0.22  19212.50      0.00      0.00       0  perf_experiment

# Time        UID       PID    %usr %system  %guest   %wait    %CPU   CPU  minflt/s  majflt/s     VSZ     RSS   %MEM   kB_rd/s   kB_wr/s kB_ccwr/s iodelay  Command
12:47:27 AM  1006    218237   98.00    3.00    0.00    0.00  101.00    62    164.00      0.00  658052  583400   0.22  19244.00      0.00      0.00       0  perf_experiment

# Time        UID       PID    %usr %system  %guest   %wait    %CPU   CPU  minflt/s  majflt/s     VSZ     RSS   %MEM   kB_rd/s   kB_wr/s kB_ccwr/s iodelay  Command
12:47:28 AM  1006    218237   98.00    1.00    0.00    0.00   99.00    62    101.00      0.00  658052  583400   0.22  19284.00      0.00      0.00       0  perf_experiment

# Time        UID       PID    %usr %system  %guest   %wait    %CPU   CPU  minflt/s  majflt/s     VSZ     RSS   %MEM   kB_rd/s   kB_wr/s kB_ccwr/s iodelay  Command
12:47:29 AM  1006    218237   98.00    3.00    0.00    0.00  101.00    62    106.00      0.00  658052  583400   0.22  19452.50      0.00      0.00       0  perf_experiment

# Time        UID       PID    %usr %system  %guest   %wait    %CPU   CPU  minflt/s  majflt/s     VSZ     RSS   %MEM   kB_rd/s   kB_wr/s kB_ccwr/s iodelay  Command
12:47:30 AM  1006    218237   97.00    3.00    0.00    0.00  100.00    62     93.00      0.00  658052  583400   0.22  19406.00      0.00      0.00       0  perf_experiment

# Time        UID       PID    %usr %system  %guest   %wait    %CPU   CPU  minflt/s  majflt/s     VSZ     RSS   %MEM   kB_rd/s   kB_wr/s kB_ccwr/s iodelay  Command
12:47:31 AM  1006    218237   97.00    3.00    0.00    0.00  100.00    62     60.00      0.00  658164  583448   0.22  19418.00      0.00      0.00       0  perf_experiment

# Time        UID       PID    %usr %system  %guest   %wait    %CPU   CPU  minflt/s  majflt/s     VSZ     RSS   %MEM   kB_rd/s   kB_wr/s kB_ccwr/s iodelay  Command
12:47:32 AM  1006    218237   98.00    2.00    0.00    0.00  100.00    62     76.00      0.00  658164  583448   0.22  19532.50      0.00      0.00       0  perf_experiment

# Time        UID       PID    %usr %system  %guest   %wait    %CPU   CPU  minflt/s  majflt/s     VSZ     RSS   %MEM   kB_rd/s   kB_wr/s kB_ccwr/s iodelay  Command
12:47:33 AM  1006    218237   97.00    2.00    0.00    0.00   99.00    62     82.00      0.00  658164  583448   0.22  19487.00      0.00      0.00       0  perf_experiment

# Time        UID       PID    %usr %system  %guest   %wait    %CPU   CPU  minflt/s  majflt/s     VSZ     RSS   %MEM   kB_rd/s   kB_wr/s kB_ccwr/s iodelay  Command
12:47:34 AM  1006    218237   99.00    2.00    0.00    0.00  101.00    62    102.00      0.00  658164  583472   0.22  19371.00      0.00      0.00       0  perf_experiment

# Time        UID       PID    %usr %system  %guest   %wait    %CPU   CPU  minflt/s  majflt/s     VSZ     RSS   %MEM   kB_rd/s   kB_wr/s kB_ccwr/s iodelay  Command
12:47:35 AM  1006    218237   98.00    1.00    0.00    0.00   99.00    62    163.00      0.00  658164  583520   0.22  19477.00      0.00      0.00       0  perf_experiment

# Time        UID       PID    %usr %system  %guest   %wait    %CPU   CPU  minflt/s  majflt/s     VSZ     RSS   %MEM   kB_rd/s   kB_wr/s kB_ccwr/s iodelay  Command
12:47:36 AM  1006    218237   99.00    2.00    0.00    0.00  101.00    62    169.00      0.00  658164  583520   0.22  19435.50      0.00      0.00       0  perf_experiment

# Time        UID       PID    %usr %system  %guest   %wait    %CPU   CPU  minflt/s  majflt/s     VSZ     RSS   %MEM   kB_rd/s   kB_wr/s kB_ccwr/s iodelay  Command
12:47:37 AM  1006    218237   98.00    1.00    0.00    0.00   99.00    62    153.00      0.00  658164  583520   0.22  19549.00      0.00      0.00       0  perf_experiment

# Time        UID       PID    %usr %system  %guest   %wait    %CPU   CPU  minflt/s  majflt/s     VSZ     RSS   %MEM   kB_rd/s   kB_wr/s kB_ccwr/s iodelay  Command
12:47:38 AM  1006    218237   99.00    2.00    0.00    0.00  101.00    62    160.00      0.00  658276  583560   0.22  19526.00      0.00      0.00       0  perf_experiment

# Time        UID       PID    %usr %system  %guest   %wait    %CPU   CPU  minflt/s  majflt/s     VSZ     RSS   %MEM   kB_rd/s   kB_wr/s kB_ccwr/s iodelay  Command
12:47:39 AM  1006    218237   98.00    1.00    0.00    0.00   99.00    62    168.00      0.00  658276  583592   0.22  19498.50      0.00      0.00       0  perf_experiment

# Time        UID       PID    %usr %system  %guest   %wait    %CPU   CPU  minflt/s  majflt/s     VSZ     RSS   %MEM   kB_rd/s   kB_wr/s kB_ccwr/s iodelay  Command
12:47:40 AM  1006    218237   98.00    3.00    0.00    0.00  101.00    62    168.00      0.00  658276  583592   0.22  19414.00      0.00      0.00       0  perf_experiment

# Time        UID       PID    %usr %system  %guest   %wait    %CPU   CPU  minflt/s  majflt/s     VSZ     RSS   %MEM   kB_rd/s   kB_wr/s kB_ccwr/s iodelay  Command
12:47:41 AM  1006    218237   96.00    3.00    0.00    0.00   99.00    62    163.00      0.00  658276  583620   0.22  19498.00      0.00      0.00       0  perf_experiment

# Time        UID       PID    %usr %system  %guest   %wait    %CPU   CPU  minflt/s  majflt/s     VSZ     RSS   %MEM   kB_rd/s   kB_wr/s kB_ccwr/s iodelay  Command
12:47:42 AM  1006    218237   98.00    2.00    0.00    0.00  100.00    62    136.00      0.00  658276  583620   0.22  19537.00      0.00      0.00       0  perf_experiment

# Time        UID       PID    %usr %system  %guest   %wait    %CPU   CPU  minflt/s  majflt/s     VSZ     RSS   %MEM   kB_rd/s   kB_wr/s kB_ccwr/s iodelay  Command
12:47:43 AM  1006    218237   97.00    4.00    0.00    0.00  101.00    62    182.00      0.00  658408  583628   0.22  19413.50      0.00      0.00       0  perf_experiment

# Time        UID       PID    %usr %system  %guest   %wait    %CPU   CPU  minflt/s  majflt/s     VSZ     RSS   %MEM   kB_rd/s   kB_wr/s kB_ccwr/s iodelay  Command
12:47:44 AM  1006    218237   98.00    1.00    0.00    0.00   99.00    62    152.00      0.00  658392  583660   0.22  19529.50      0.00      0.00       0  perf_experiment

# Time        UID       PID    %usr %system  %guest   %wait    %CPU   CPU  minflt/s  majflt/s     VSZ     RSS   %MEM   kB_rd/s   kB_wr/s kB_ccwr/s iodelay  Command
12:47:45 AM  1006    218237   98.00    3.00    0.00    0.00  101.00    62    152.00      0.00  658392  583660   0.22  19499.50      0.00      0.00       0  perf_experiment

# Time        UID       PID    %usr %system  %guest   %wait    %CPU   CPU  minflt/s  majflt/s     VSZ     RSS   %MEM   kB_rd/s   kB_wr/s kB_ccwr/s iodelay  Command
12:47:46 AM  1006    218237   97.00    3.00    0.00    0.00  100.00    62    195.00      0.00  658392  583700   0.22  19459.00      0.00      0.00       0  perf_experiment

# Time        UID       PID    %usr %system  %guest   %wait    %CPU   CPU  minflt/s  majflt/s     VSZ     RSS   %MEM   kB_rd/s   kB_wr/s kB_ccwr/s iodelay  Command
12:47:47 AM  1006    218237   98.00    1.00    0.00    0.00   99.00    62    167.00      0.00  658392  583700   0.22  19461.00      0.00      0.00       0  perf_experiment

# Time        UID       PID    %usr %system  %guest   %wait    %CPU   CPU  minflt/s  majflt/s     VSZ     RSS   %MEM   kB_rd/s   kB_wr/s kB_ccwr/s iodelay  Command
12:47:48 AM  1006    218237   99.00    2.00    0.00    0.00  101.00    62    165.00      0.00  658392  583740   0.22  19473.00      0.00      0.00       0  perf_experiment

# Time        UID       PID    %usr %system  %guest   %wait    %CPU   CPU  minflt/s  majflt/s     VSZ     RSS   %MEM   kB_rd/s   kB_wr/s kB_ccwr/s iodelay  Command
12:47:49 AM  1006    218237  100.00    0.00    0.00    0.00  100.00    62    253.00      0.00  658772  584032   0.22  19454.00      0.00      0.00       0  perf_experiment

# Time        UID       PID    %usr %system  %guest   %wait    %CPU   CPU  minflt/s  majflt/s     VSZ     RSS   %MEM   kB_rd/s   kB_wr/s kB_ccwr/s iodelay  Command
12:47:50 AM  1006    218237   98.00    2.00    0.00    0.00  100.00    62    131.00      0.00  658908  584172   0.22  19521.00      0.00      0.00       0  perf_experiment

# Time        UID       PID    %usr %system  %guest   %wait    %CPU   CPU  minflt/s  majflt/s     VSZ     RSS   %MEM   kB_rd/s   kB_wr/s kB_ccwr/s iodelay  Command
12:47:51 AM  1006    218237   98.00    1.00    0.00    0.00   99.00    62    157.00      0.00  658908  584172   0.22  19489.00      0.00      0.00       0  perf_experiment

# Time        UID       PID    %usr %system  %guest   %wait    %CPU   CPU  minflt/s  majflt/s     VSZ     RSS   %MEM   kB_rd/s   kB_wr/s kB_ccwr/s iodelay  Command
12:47:52 AM  1006    218237   98.00    3.00    0.00    0.00  101.00    62    146.00      0.00  658908  584188   0.22  19519.00      0.00      0.00       0  perf_experiment

# Time        UID       PID    %usr %system  %guest   %wait    %CPU   CPU  minflt/s  majflt/s     VSZ     RSS   %MEM   kB_rd/s   kB_wr/s kB_ccwr/s iodelay  Command
12:47:53 AM  1006    218237   95.00    4.00    0.00    0.00   99.00    62    166.00      0.00  658908  584204   0.22  19463.00      0.00      0.00       0  perf_experiment

# Time        UID       PID    %usr %system  %guest   %wait    %CPU   CPU  minflt/s  majflt/s     VSZ     RSS   %MEM   kB_rd/s   kB_wr/s kB_ccwr/s iodelay  Command
12:47:54 AM  1006    218237   99.00    2.00    0.00    0.00  101.00    62    150.00      0.00  658908  584260   0.22  19503.00      0.00      0.00       0  perf_experiment

# Time        UID       PID    %usr %system  %guest   %wait    %CPU   CPU  minflt/s  majflt/s     VSZ     RSS   %MEM   kB_rd/s   kB_wr/s kB_ccwr/s iodelay  Command
12:47:55 AM  1006    218237   98.00    1.00    0.00    0.00   99.00    62    196.00      0.00  659032  584292   0.22  19525.50      0.00      0.00       0  perf_experiment

# Time        UID       PID    %usr %system  %guest   %wait    %CPU   CPU  minflt/s  majflt/s     VSZ     RSS   %MEM   kB_rd/s   kB_wr/s kB_ccwr/s iodelay  Command
12:47:56 AM  1006    218237   97.00    4.00    0.00    0.00  101.00    62    165.00      0.00  659032  584316   0.22  19465.50      0.00      0.00       0  perf_experiment

# Time        UID       PID    %usr %system  %guest   %wait    %CPU   CPU  minflt/s  majflt/s     VSZ     RSS   %MEM   kB_rd/s   kB_wr/s kB_ccwr/s iodelay  Command
12:47:57 AM  1006    218237   98.00    2.00    0.00    0.00  100.00    62    152.00      0.00  659032  584332   0.22  19431.50      0.00      0.00       0  perf_experiment

# Time        UID       PID    %usr %system  %guest   %wait    %CPU   CPU  minflt/s  majflt/s     VSZ     RSS   %MEM   kB_rd/s   kB_wr/s kB_ccwr/s iodelay  Command
12:47:58 AM  1006    218237   99.00    1.00    0.00    0.00  100.00    62    127.00      0.00  659032  584332   0.22  19539.00      0.00      0.00       0  perf_experiment

# Time        UID       PID    %usr %system  %guest   %wait    %CPU   CPU  minflt/s  majflt/s     VSZ     RSS   %MEM   kB_rd/s   kB_wr/s kB_ccwr/s iodelay  Command
12:47:59 AM  1006    218237   98.00    2.00    0.00    0.00  100.00    62    137.00      0.00  659032  584332   0.22  19420.00      0.00      0.00       0  perf_experiment

# Time        UID       PID    %usr %system  %guest   %wait    %CPU   CPU  minflt/s  majflt/s     VSZ     RSS   %MEM   kB_rd/s   kB_wr/s kB_ccwr/s iodelay  Command