5,Faster,3,5000000,2500000,8,32,43279,5000000


resource usage stats

Linux 5.4.0-42-generic (arcon1) 	10/25/2020 	_x86_64_	(64 CPU)

# Time        UID       PID    %usr %system  %guest   %wait    %CPU   CPU  minflt/s  majflt/s     VSZ     RSS   %MEM   kB_rd/s   kB_wr/s kB_ccwr/s iodelay  Command
10:35:09 AM  1006    221047   59.00   40.00    0.00    0.00   99.00    24 146017.00      0.00  664116  589264   0.22      0.00      4.00      0.00       0  perf_experiment

# Time        UID       PID    %usr %system  %guest   %wait    %CPU   CPU  minflt/s  majflt/s     VSZ     RSS   %MEM   kB_rd/s   kB_wr/s kB_ccwr/s iodelay  Command
10:35:10 AM  1006    221047   78.00   22.00    0.00    0.00  100.00    24  11110.00      0.00  672564  597912   0.23      0.00      0.00      0.00       0  perf_experiment

# Time        UID       PID    %usr %system  %guest   %wait    %CPU   CPU  minflt/s  majflt/s     VSZ     RSS   %MEM   kB_rd/s   kB_wr/s kB_ccwr/s iodelay  Command
10:35:11 AM  1006    221047   80.00   20.00    0.00    0.00  100.00    24  26032.00      0.00  680616  605900   0.23      0.00      0.00      0.00       0  perf_experiment

# Time        UID       PID    %usr %system  %guest   %wait    %CPU   CPU  minflt/s  majflt/s     VSZ     RSS   %MEM   kB_rd/s   kB_wr/s kB_ccwr/s iodelay  Command
10:35:12 AM  1006    221047   81.00   19.00    0.00    0.00  100.00    24  26127.00      0.00  688272  613548   0.23      0.00      0.00      0.00       0  perf_experiment

# Time        UID       PID    %usr %system  %guest   %wait    %CPU   CPU  minflt/s  majflt/s     VSZ     RSS   %MEM   kB_rd/s   kB_wr/s kB_ccwr/s iodelay  Command
10:35:13 AM  1006    221047   76.00   20.00    0.00    0.00   96.00    24  33207.00      0.00  695004  620232   0.24      0.00  65536.00      0.00       4  perf_experiment

# Time        UID       PID    %usr %system  %guest   %wait    %CPU   CPU  minflt/s  majflt/s     VSZ     RSS   %MEM   kB_rd/s   kB_wr/s kB_ccwr/s iodelay  Command
10:35:14 AM  1006    221047   49.00   50.00    0.00    0.00   99.00    24   1412.00      0.00  697120  622568   0.24   6540.50      0.00      0.00       0  perf_experiment

# Time        UID       PID    %usr %system  %guest   %wait    %CPU   CPU  minflt/s  majflt/s     VSZ     RSS   %MEM   kB_rd/s   kB_wr/s kB_ccwr/s iodelay  Command
10:35:15 AM  1006    221047   36.00   63.00    0.00    0.00   99.00    24   8343.00      0.00  697252  622712   0.24   8449.00  32768.00      0.00       2  perf_experiment

# Time        UID       PID    %usr %system  %guest   %wait    %CPU   CPU  minflt/s  majflt/s     VSZ     RSS   %MEM   kB_rd/s   kB_wr/s kB_ccwr/s iodelay  Command
10:35:16 AM  1006    221047   38.00   62.00    0.00    0.00  100.00    24   1015.00      0.00  697376  622888   0.24   8269.00      0.00      0.00       0  perf_experiment

# Time        UID       PID    %usr %system  %guest   %wait    %CPU   CPU  minflt/s  majflt/s     VSZ     RSS   %MEM   kB_rd/s   kB_wr/s kB_ccwr/s iodelay  Command
10:35:17 AM  1006    221047   38.00   62.00    0.00    0.00  100.00    24    469.00      0.00  697640  623080   0.24   8347.50      0.00      0.00       0  perf_experiment

# Time        UID       PID    %usr %system  %guest   %wait    %CPU   CPU  minflt/s  majflt/s     VSZ     RSS   %MEM   kB_rd/s   kB_wr/s kB_ccwr/s iodelay  Command
10:35:18 AM  1006    221047   38.00   62.00    0.00    0.00  100.00    24    483.00      0.00  697776  623268   0.24   8498.00      0.00      0.00       0  perf_experiment

# Time        UID       PID    %usr %system  %guest   %wait    %CPU   CPU  minflt/s  majflt/s     VSZ     RSS   %MEM   kB_rd/s   kB_wr/s kB_ccwr/s iodelay  Command
10:35:19 AM  1006    221047   37.00   63.00    0.00    0.00  100.00    24    483.00      0.00  698028  623452   0.24   8768.00      0.00      0.00       0  perf_experiment

# Time        UID       PID    %usr %system  %guest   %wait    %CPU   CPU  minflt/s  majflt/s     VSZ     RSS   %MEM   kB_rd/s   kB_wr/s kB_ccwr/s iodelay  Command
10:35:20 AM  1006    221047   38.00   61.00    0.00    0.00   99.00    24   1044.00      0.00  698156  623620   0.24   8339.00      0.00      0.00       0  perf_experiment

# Time        UID       PID    %usr %system  %guest   %wait    %CPU   CPU  minflt/s  majflt/s     VSZ     RSS   %MEM   kB_rd/s   kB_wr/s kB_ccwr/s iodelay  Command
10:35:21 AM  1006    221047   44.00   57.00    0.00    0.00  101.00    24    450.00      0.00  698292  623796   0.24   8275.50      0.00      0.00       0  perf_experiment

# Time        UID       PID    %usr %system  %guest   %wait    %CPU   CPU  minflt/s  majflt/s     VSZ     RSS   %MEM   kB_rd/s   kB_wr/s kB_ccwr/s iodelay  Command
10:35:22 AM  1006    221047   31.00   69.00    0.00    0.00  100.00    24    502.00      0.00  698540  624000   0.24   8727.00      0.00      0.00       0  perf_experiment

# Time        UID       PID    %usr %system  %guest   %wait    %CPU   CPU  minflt/s  majflt/s     VSZ     RSS   %MEM   kB_rd/s   kB_wr/s kB_ccwr/s iodelay  Command
10:35:23 AM  1006    221047   35.00   65.00    0.00    0.00  100.00    24    472.00      0.00  698664  624152   0.24   8730.00      0.00      0.00       0  perf_experiment

# Time        UID       PID    %usr %system  %guest   %wait    %CPU   CPU  minflt/s  majflt/s     VSZ     RSS   %MEM   kB_rd/s   kB_wr/s kB_ccwr/s iodelay  Command
10:35:24 AM  1006    221047   35.00   65.00    0.00    0.00  100.00    24   1073.00      0.00  698928  624348   0.24   8276.00      0.00      0.00       0  perf_experiment

# Time        UID       PID    %usr %system  %guest   %wait    %CPU   CPU  minflt/s  majflt/s     VSZ     RSS   %MEM   kB_rd/s   kB_wr/s kB_ccwr/s iodelay  Command
10:35:25 AM  1006    221047   34.00   66.00    0.00    0.00  100.00    24    458.00      0.00  699056  624520   0.24   8403.00      0.00      0.00       0  perf_experiment

# Time        UID       PID    %usr %system  %guest   %wait    %CPU   CPU  minflt/s  majflt/s     VSZ     RSS   %MEM   kB_rd/s   kB_wr/s kB_ccwr/s iodelay  Command
10:35:26 AM  1006    221047   35.00   65.00    0.00    0.00  100.00    24    494.00      0.00  699316  624740   0.24   8877.50      0.00      0.00       0  perf_experiment

# Time        UID       PID    %usr %system  %guest   %wait    %CPU   CPU  minflt/s  majflt/s     VSZ     RSS   %MEM   kB_rd/s   kB_wr/s kB_ccwr/s iodelay  Command
10:35:27 AM  1006    221047   40.00   59.00    0.00    0.00   99.00    24    489.00      0.00  699452  624940   0.24   8426.00      0.00      0.00       0  perf_experiment

# Time        UID       PID    %usr %system  %guest   %wait    %CPU   CPU  minflt/s  majflt/s     VSZ     RSS   %MEM   kB_rd/s   kB_wr/s kB_ccwr/s iodelay  Command
10:35:28 AM  1006    221047   40.00   61.00    0.00    0.00  101.00    24    451.00      0.00  699712  625104   0.24   8351.00      0.00      0.00       0  perf_experiment

# Time        UID       PID    %usr %system  %guest   %wait    %CPU   CPU  minflt/s  majflt/s     VSZ     RSS   %MEM   kB_rd/s   kB_wr/s kB_ccwr/s iodelay  Command
10:35:29 AM  1006    221047   36.00   63.00    0.00    0.00   99.00    24   1156.00      0.00  699848  625272   0.24   8547.50      0.00      0.00       0  perf_experiment

# Time        UID       PID    %usr %system  %guest   %wait    %CPU   CPU  minflt/s  majflt/s     VSZ     RSS   %MEM   kB_rd/s   kB_wr/s kB_ccwr/s iodelay  Command
10:35:30 AM  1006    221047   34.00   67.00    0.00    0.00  101.00    24    537.00      0.00  699972  625476   0.24   8481.00      0.00      0.00       0  perf_experiment

# Time        UID       PID    %usr %system  %guest   %wait    %CPU   CPU  minflt/s  majflt/s     VSZ     RSS   %MEM   kB_rd/s   kB_wr/s kB_ccwr/s iodelay  Command
10:35:31 AM  1006    221047   38.00   62.00    0.00    0.00  100.00    24    516.00      0.00  700244  625676   0.24   8622.50      0.00      0.00       0  perf_experiment

# Time        UID       PID    %usr %system  %guest   %wait    %CPU   CPU  minflt/s  majflt/s     VSZ     RSS   %MEM   kB_rd/s   kB_wr/s kB_ccwr/s iodelay  Command
10:35:32 AM  1006    221047   34.00   65.00    0.00    0.00   99.00    24    514.00      0.00  700380  625864   0.24   8590.50      0.00      0.00       0  perf_experiment

# Time        UID       PID    %usr %system  %guest   %wait    %CPU   CPU  minflt/s  majflt/s     VSZ     RSS   %MEM   kB_rd/s   kB_wr/s kB_ccwr/s iodelay  Command
10:35:33 AM  1006    221047   38.00   62.00    0.00    0.00  100.00    24    521.00      0.00  700636  626028   0.24   8389.50      0.00      0.00       0  perf_experiment

# Time        UID       PID    %usr %system  %guest   %wait    %CPU   CPU  minflt/s  majflt/s     VSZ     RSS   %MEM   kB_rd/s   kB_wr/s kB_ccwr/s iodelay  Command
10:35:34 AM  1006    221047   34.00   67.00    0.00    0.00  101.00    24    482.00      0.00  700764  626244   0.24   8630.00      0.00      0.00       0  perf_experiment

# Time        UID       PID    %usr %system  %guest   %wait    %CPU   CPU  minflt/s  majflt/s     VSZ     RSS   %MEM   kB_rd/s   kB_wr/s kB_ccwr/s iodelay  Command
10:35:35 AM  1006    221047   40.00   58.00    0.00    0.00   98.00    24   8658.00      0.00  700900  626392   0.24   8134.50  32768.00      0.00       2  perf_experiment

# Time        UID       PID    %usr %system  %guest   %wait    %CPU   CPU  minflt/s  majflt/s     VSZ     RSS   %MEM   kB_rd/s   kB_wr/s kB_ccwr/s iodelay  Command
10:35:36 AM  1006    221047   40.00   59.00    0.00    0.00   99.00    24   1193.00      0.00  701168  626632   0.24   8669.00      0.00      0.00       0  perf_experiment

# Time        UID       PID    %usr %system  %guest   %wait    %CPU   CPU  minflt/s  majflt/s     VSZ     RSS   %MEM   kB_rd/s   kB_wr/s kB_ccwr/s iodelay  Command
10:35:37 AM  1006    221047   31.00   69.00    0.00    0.00  100.00    24    623.00      0.00  701288  626776   0.24   8545.00      0.00      0.00       0  perf_experiment

# Time        UID       PID    %usr %system  %guest   %wait    %CPU   CPU  minflt/s  majflt/s     VSZ     RSS   %MEM   kB_rd/s   kB_wr/s kB_ccwr/s iodelay  Command
10:35:38 AM  1006    221047   36.00   64.00    0.00    0.00  100.00    24    556.00      0.00  701532  626964   0.24   8153.00      0.00      0.00       0  perf_experiment

# Time        UID       PID    %usr %system  %guest   %wait    %CPU   CPU  minflt/s  majflt/s     VSZ     RSS   %MEM   kB_rd/s   kB_wr/s kB_ccwr/s iodelay  Command
10:35:39 AM  1006    221047   37.00   64.00    0.00    0.00  101.00    24    519.00      0.00  701668  627124   0.24   8634.00      0.00      0.00       0  perf_experiment

# Time        UID       PID    %usr %system  %guest   %wait    %CPU   CPU  minflt/s  majflt/s     VSZ     RSS   %MEM   kB_rd/s   kB_wr/s kB_ccwr/s iodelay  Command
10:35:40 AM  1006    221047   43.00   56.00    0.00    0.00   99.00    24    512.00      0.00  701924  627348   0.24   8737.00      0.00      0.00       0  perf_experiment

# Time        UID       PID    %usr %system  %guest   %wait    %CPU   CPU  minflt/s  majflt/s     VSZ     RSS   %MEM   kB_rd/s   kB_wr/s kB_ccwr/s iodelay  Command
10:35:41 AM  1006    221047   33.00   67.00    0.00    0.00  100.00    24    441.00      0.00  702052  627504   0.24   8066.00      0.00      0.00       0  perf_experiment

# Time        UID       PID    %usr %system  %guest   %wait    %CPU   CPU  minflt/s  majflt/s     VSZ     RSS   %MEM   kB_rd/s   kB_wr/s kB_ccwr/s iodelay  Command
10:35:42 AM  1006    221047   37.00   64.00    0.00    0.00  101.00    24    531.00      0.00  702312  627704   0.24   8479.00      0.00      0.00       0  perf_experiment

# Time        UID       PID    %usr %system  %guest   %wait    %CPU   CPU  minflt/s  majflt/s     VSZ     RSS   %MEM   kB_rd/s   kB_wr/s kB_ccwr/s iodelay  Command
10:35:43 AM  1006    221047   38.00   62.00    0.00    0.00  100.00    24    518.00      0.00  702440  627920   0.24   8991.00      0.00      0.00       0  perf_experiment

# Time        UID       PID    %usr %system  %guest   %wait    %CPU   CPU  minflt/s  majflt/s     VSZ     RSS   %MEM   kB_rd/s   kB_wr/s kB_ccwr/s iodelay  Command
10:35:44 AM  1006    221047   35.00   64.00    0.00    0.00   99.00    24    462.00      0.00  702692  628100   0.24   8200.00      0.00      0.00       0  perf_experiment

# Time        UID       PID    %usr %system  %guest   %wait    %CPU   CPU  minflt/s  majflt/s     VSZ     RSS   %MEM   kB_rd/s   kB_wr/s kB_ccwr/s iodelay  Command
10:35:45 AM  1006    221047   36.00   64.00    0.00    0.00  100.00    24   1240.00      0.00  702820  628284   0.24   8298.50      0.00      0.00       0  perf_experiment

# Time        UID       PID    %usr %system  %guest   %wait    %CPU   CPU  minflt/s  majflt/s     VSZ     RSS   %MEM   kB_rd/s   kB_wr/s kB_ccwr/s iodelay  Command
10:35:46 AM  1006    221047   41.00   59.00    0.00    0.00  100.00    24    676.00      0.00  703072  628472   0.24   9053.00      0.00      0.00       0  perf_experiment

# Time        UID       PID    %usr %system  %guest   %wait    %CPU   CPU  minflt/s  majflt/s     VSZ     RSS   %MEM   kB_rd/s   kB_wr/s kB_ccwr/s iodelay  Command
10:35:47 AM  1006    221047   37.00   63.00    0.00    0.00  100.00    24    666.00      0.00  703208  628680   0.24   8607.50      0.00      0.00       0  perf_experiment

# Time        UID       PID    %usr %system  %guest   %wait    %CPU   CPU  minflt/s  majflt/s     VSZ     RSS   %MEM   kB_rd/s   kB_wr/s kB_ccwr/s iodelay  Command
10:35:48 AM  1006    221047   29.00   71.00    0.00    0.00  100.00    24    457.00      0.00  703344  628832   0.24   8218.00      0.00      0.00       0  perf_experiment

# Time        UID       PID    %usr %system  %guest   %wait    %CPU   CPU  minflt/s  majflt/s     VSZ     RSS   %MEM   kB_rd/s   kB_wr/s kB_ccwr/s iodelay  Command
10:35:49 AM  1006    221047   37.00   63.00    0.00    0.00  100.00    24    555.00      0.00  703600  629000   0.24   8458.00      0.00      0.00       0  perf_experiment

# Time        UID       PID    %usr %system  %guest   %wait    %CPU   CPU  minflt/s  majflt/s     VSZ     RSS   %MEM   kB_rd/s   kB_wr/s kB_ccwr/s iodelay  Command
10:35:50 AM  1006    221047   40.00   60.00    0.00    0.00  100.00    24    552.00      0.00  703728  629212   0.24   8450.00      0.00      0.00       0  perf_experiment

# Time        UID       PID    %usr %system  %guest   %wait    %CPU   CPU  minflt/s  majflt/s     VSZ     RSS   %MEM   kB_rd/s   kB_wr/s kB_ccwr/s iodelay  Command
10:35:51 AM  1006    221047   35.00   65.00    0.00    0.00  100.00    24    473.00      0.00  703864  629356   0.24   8855.50      0.00      0.00       0  perf_experiment

# Time        UID       PID    %usr %system  %guest   %wait    %CPU   CPU  minflt/s  majflt/s     VSZ     RSS   %MEM   kB_rd/s   kB_wr/s kB_ccwr/s iodelay  Command
10:35:52 AM  1006    221047   41.00   60.00    0.00    0.00  101.00    24    530.00      0.00  704116  629572   0.24   8453.50      0.00      0.00       0  perf_experiment

# Time        UID       PID    %usr %system  %guest   %wait    %CPU   CPU  minflt/s  majflt/s     VSZ     RSS   %MEM   kB_rd/s   kB_wr/s kB_ccwr/s iodelay  Command
10:35:53 AM  1006    221047   37.00   63.00    0.00    0.00  100.00    24    473.00      0.00  704244  629756   0.24   8482.50      0.00      0.00       0  perf_experiment

# Time        UID       PID    %usr %system  %guest   %wait    %CPU   CPU  minflt/s  majflt/s     VSZ     RSS   %MEM   kB_rd/s   kB_wr/s kB_ccwr/s iodelay  Command
10:35:54 AM  1006    221047   34.00   65.00    0.00    0.00   99.00    24    491.00      0.00  704500  629924   0.24   8437.50      0.00      0.00       0  perf_experiment

# Time        UID       PID    %usr %system  %guest   %wait    %CPU   CPU  minflt/s  majflt/s     VSZ     RSS   %MEM   kB_rd/s   kB_wr/s kB_ccwr/s iodelay  Command
10:35:55 AM  1006    221047   44.00   55.00    0.00    0.00   99.00    24   8669.00      0.00  704636  630108   0.24   8493.00  32768.00      0.00       2  perf_experiment

# Time        UID       PID    %usr %system  %guest   %wait    %CPU   CPU  minflt/s  majflt/s     VSZ     RSS   %MEM   kB_rd/s   kB_wr/s kB_ccwr/s iodelay  Command
10:35:56 AM  1006    221047   32.00   67.00    0.00    0.00   99.00    24    502.00      0.00  704904  630304   0.24   8478.50      0.00      0.00       0  perf_experiment

# Time        UID       PID    %usr %system  %guest   %wait    %CPU   CPU  minflt/s  majflt/s     VSZ     RSS   %MEM   kB_rd/s   kB_wr/s kB_ccwr/s iodelay  Command
10:35:57 AM  1006    221047   33.00   67.00    0.00    0.00  100.00    24   1391.00      0.00  705032  630476   0.24   8296.00      0.00      0.00       0  perf_experiment

# Time        UID       PID    %usr %system  %guest   %wait    %CPU   CPU  minflt/s  majflt/s     VSZ     RSS   %MEM   kB_rd/s   kB_wr/s kB_ccwr/s iodelay  Command
10:35:58 AM  1006    221047   35.00   66.00    0.00    0.00  101.00    24    820.00      0.00  705168  630648   0.24   8396.00      0.00      0.00       0  perf_experiment

# Time        UID       PID    %usr %system  %guest   %wait    %CPU   CPU  minflt/s  majflt/s     VSZ     RSS   %MEM   kB_rd/s   kB_wr/s kB_ccwr/s iodelay  Command
10:35:59 AM  1006    221047   41.00   58.00    0.00    0.00   99.00    24    573.00      0.00  705432  630864   0.24   8875.00      0.00      0.00       0  perf_experiment

# Time        UID       PID    %usr %system  %guest   %wait    %CPU   CPU  minflt/s  majflt/s     VSZ     RSS   %MEM   kB_rd/s   kB_wr/s kB_ccwr/s iodelay  Command
10:36:00 AM  1006    221047   37.00   63.00    0.00    0.00  100.00    24    556.00      0.00  705568  631028   0.24   8498.00      0.00      0.00       0  perf_experiment

# Time        UID       PID    %usr %system  %guest   %wait    %CPU   CPU  minflt/s  majflt/s     VSZ     RSS   %MEM   kB_rd/s   kB_wr/s kB_ccwr/s iodelay  Command
10:36:01 AM  1006    221047   34.00   66.00    0.00    0.00  100.00    24    597.00      0.00  705700  631212   0.24   8362.50      0.00      0.00       0  perf_experiment

# Time        UID       PID    %usr %system  %guest   %wait    %CPU   CPU  minflt/s  majflt/s     VSZ     RSS   %MEM   kB_rd/s   kB_wr/s kB_ccwr/s iodelay  Command
10:36:02 AM  1006    221047   36.00   65.00    0.00    0.00  101.00    24    514.00      0.00  705972  631436   0.24   8407.00      0.00      0.00       0  perf_experiment

# Time        UID       PID    %usr %system  %guest   %wait    %CPU   CPU  minflt/s  majflt/s     VSZ     RSS   %MEM   kB_rd/s   kB_wr/s kB_ccwr/s iodelay  Command
10:36:03 AM  1006    221047   36.00   63.00    0.00    0.00   99.00    24    477.00      0.00  706108  631596   0.24   8679.00      0.00      0.00       0  perf_experiment

# Time        UID       PID    %usr %system  %guest   %wait    %CPU   CPU  minflt/s  majflt/s     VSZ     RSS   %MEM   kB_rd/s   kB_wr/s kB_ccwr/s iodelay  Command
10:36:04 AM  1006    221047   37.00   63.00    0.00    0.00  100.00    24    474.00      0.00  706352  631768   0.24   8450.00      0.00      0.00       0  perf_experiment

# Time        UID       PID    %usr %system  %guest   %wait    %CPU   CPU  minflt/s  majflt/s     VSZ     RSS   %MEM   kB_rd/s   kB_wr/s kB_ccwr/s iodelay  Command
10:36:05 AM  1006    221047   36.00   64.00    0.00    0.00  100.00    24    474.00      0.00  706608  632000   0.24   8510.50      0.00      0.00       0  perf_experiment

# Time        UID       PID    %usr %system  %guest   %wait    %CPU   CPU  minflt/s  majflt/s     VSZ     RSS   %MEM   kB_rd/s   kB_wr/s kB_ccwr/s iodelay  Command
10:36:06 AM  1006    221047   41.00   59.00    0.00    0.00  100.00    24    507.00      0.00  706744  632152   0.24   8357.50      0.00      0.00       0  perf_experiment

# Time        UID       PID    %usr %system  %guest   %wait    %CPU   CPU  minflt/s  majflt/s     VSZ     RSS   %MEM   kB_rd/s   kB_wr/s kB_ccwr/s iodelay  Command
10:36:07 AM  1006    221047   40.00   60.00    0.00    0.00  100.00    24    483.00      0.00  706860  632348   0.24   8562.50      0.00      0.00       0  perf_experiment

# Time        UID       PID    %usr %system  %guest   %wait    %CPU   CPU  minflt/s  majflt/s     VSZ     RSS   %MEM   kB_rd/s   kB_wr/s kB_ccwr/s iodelay  Command
10:36:08 AM  1006    221047   40.00   60.00    0.00    0.00  100.00    24    492.00      0.00  707112  632552   0.24   8902.50      0.00      0.00       0  perf_experiment

# Time        UID       PID    %usr %system  %guest   %wait    %CPU   CPU  minflt/s  majflt/s     VSZ     RSS   %MEM   kB_rd/s   kB_wr/s kB_ccwr/s iodelay  Command
10:36:09 AM  1006    221047   34.00   66.00    0.00    0.00  100.00    24    478.00      0.00  707244  632724   0.24   8351.50      0.00      0.00       0  perf_experiment

# Time        UID       PID    %usr %system  %guest   %wait    %CPU   CPU  minflt/s  majflt/s     VSZ     RSS   %MEM   kB_rd/s   kB_wr/s kB_ccwr/s iodelay  Command
10:36:10 AM  1006    221047   36.00   65.00    0.00    0.00  101.00    24    486.00      0.00  707504  632904   0.24   8556.00      0.00      0.00       0  perf_experiment

# Time        UID       PID    %usr %system  %guest   %wait    %CPU   CPU  minflt/s  majflt/s     VSZ     RSS   %MEM   kB_rd/s   kB_wr/s kB_ccwr/s iodelay  Command
10:36:11 AM  1006    221047   41.00   58.00    0.00    0.00   99.00    24    496.00      0.00  707632  633108   0.24   8361.50      0.00      0.00       0  perf_experiment

# Time        UID       PID    %usr %system  %guest   %wait    %CPU   CPU  minflt/s  majflt/s     VSZ     RSS   %MEM   kB_rd/s   kB_wr/s kB_ccwr/s iodelay  Command
10:36:12 AM  1006    221047   36.00   65.00    0.00    0.00  101.00    24   1294.00      0.00  707764  633260   0.24   8700.00      0.00      0.00       0  perf_experiment

# Time        UID       PID    %usr %system  %guest   %wait    %CPU   CPU  minflt/s  majflt/s     VSZ     RSS   %MEM   kB_rd/s   kB_wr/s kB_ccwr/s iodelay  Command
10:36:13 AM  1006    221047   40.00   60.00    0.00    0.00  100.00    24    998.00      0.00  708024  633488   0.24   8828.00      0.00      0.00       0  perf_experiment

# Time        UID       PID    %usr %system  %guest   %wait    %CPU   CPU  minflt/s  majflt/s     VSZ     RSS   %MEM   kB_rd/s   kB_wr/s kB_ccwr/s iodelay  Command
10:36:14 AM  1006    221047   38.00   59.00    0.00    0.00   97.00    24   8983.00      0.00  708152  633620   0.24   7898.50  32768.00      0.00       3  perf_experiment

# Time        UID       PID    %usr %system  %guest   %wait    %CPU   CPU  minflt/s  majflt/s     VSZ     RSS   %MEM   kB_rd/s   kB_wr/s kB_ccwr/s iodelay  Command
10:36:15 AM  1006    221047   33.00   67.00    0.00    0.00  100.00    24    567.00      0.00  708408  633832   0.24   8336.50      0.00      0.00       0  perf_experiment

# Time        UID       PID    %usr %system  %guest   %wait    %CPU   CPU  minflt/s  majflt/s     VSZ     RSS   %MEM   kB_rd/s   kB_wr/s kB_ccwr/s iodelay  Command
10:36:16 AM  1006    221047   38.00   62.00    0.00    0.00  100.00    24    543.00      0.00  708544  634032   0.24   8967.50      0.00      0.00       0  perf_experiment

# Time        UID       PID    %usr %system  %guest   %wait    %CPU   CPU  minflt/s  majflt/s     VSZ     RSS   %MEM   kB_rd/s   kB_wr/s kB_ccwr/s iodelay  Command
10:36:17 AM  1006    221047   37.00   63.00    0.00    0.00  100.00    24    691.00      0.00  708804  634196   0.24   8335.50      0.00      0.00       0  perf_experiment

# Time        UID       PID    %usr %system  %guest   %wait    %CPU   CPU  minflt/s  majflt/s     VSZ     RSS   %MEM   kB_rd/s   kB_wr/s kB_ccwr/s iodelay  Command
10:36:18 AM  1006    221047   37.00   63.00    0.00    0.00  100.00    24    539.00      0.00  708940  634372   0.24   8205.00      0.00      0.00       0  perf_experiment

# Time        UID       PID    %usr %system  %guest   %wait    %CPU   CPU  minflt/s  majflt/s     VSZ     RSS   %MEM   kB_rd/s   kB_wr/s kB_ccwr/s iodelay  Command
10:36:19 AM  1006    221047   37.00   63.00    0.00    0.00  100.00    24    512.00      0.00  709212  634604   0.24   8926.50      0.00      0.00       0  perf_experiment

# Time        UID       PID    %usr %system  %guest   %wait    %CPU   CPU  minflt/s  majflt/s     VSZ     RSS   %MEM   kB_rd/s   kB_wr/s kB_ccwr/s iodelay  Command
10:36:20 AM  1006    221047   41.00   60.00    0.00    0.00  101.00    24    474.00      0.00  709336  634792   0.24   8442.50      0.00      0.00       0  perf_experiment

# Time        UID       PID    %usr %system  %guest   %wait    %CPU   CPU  minflt/s  majflt/s     VSZ     RSS   %MEM   kB_rd/s   kB_wr/s kB_ccwr/s iodelay  Command
10:36:21 AM  1006    221047   37.00   62.00    0.00    0.00   99.00    24    436.00      0.00  709460  634928   0.24   8143.50      0.00      0.00       0  perf_experiment

# Time        UID       PID    %usr %system  %guest   %wait    %CPU   CPU  minflt/s  majflt/s     VSZ     RSS   %MEM   kB_rd/s   kB_wr/s kB_ccwr/s iodelay  Command
10:36:22 AM  1006    221047   40.00   60.00    0.00    0.00  100.00    24    486.00      0.00  709716  635108   0.24   8782.50      0.00      0.00       0  perf_experiment

# Time        UID       PID    %usr %system  %guest   %wait    %CPU   CPU  minflt/s  majflt/s     VSZ     RSS   %MEM   kB_rd/s   kB_wr/s kB_ccwr/s iodelay  Command
10:36:23 AM  1006    221047   41.00   59.00    0.00    0.00  100.00    24    488.00      0.00  709852  635332   0.24   8750.00      0.00      0.00       0  perf_experiment

# Time        UID       PID    %usr %system  %guest   %wait    %CPU   CPU  minflt/s  majflt/s     VSZ     RSS   %MEM   kB_rd/s   kB_wr/s kB_ccwr/s iodelay  Command
10:36:24 AM  1006    221047   36.00   65.00    0.00    0.00  101.00    24    468.00      0.00  710108  635484   0.24   8497.00      0.00      0.00       0  perf_experiment

# Time        UID       PID    %usr %system  %guest   %wait    %CPU   CPU  minflt/s  majflt/s     VSZ     RSS   %MEM   kB_rd/s   kB_wr/s kB_ccwr/s iodelay  Command
10:36:25 AM  1006    221047   36.00   64.00    0.00    0.00  100.00    24    495.00      0.00  710244  635684   0.24   8183.50      0.00      0.00       0  perf_experiment

# Time        UID       PID    %usr %system  %guest   %wait    %CPU   CPU  minflt/s  majflt/s     VSZ     RSS   %MEM   kB_rd/s   kB_wr/s kB_ccwr/s iodelay  Command
10:36:26 AM  1006    221047   37.00   62.00    0.00    0.00   99.00    24    474.00      0.00  710372  635856   0.24   8402.50      0.00      0.00       0  perf_experiment

# Time        UID       PID    %usr %system  %guest   %wait    %CPU   CPU  minflt/s  majflt/s     VSZ     RSS   %MEM   kB_rd/s   kB_wr/s kB_ccwr/s iodelay  Command
10:36:27 AM  1006    221047   39.00   61.00    0.00    0.00  100.00    24    519.00      0.00  710632  636024   0.24   8845.00      0.00      0.00       0  perf_experiment

# Time        UID       PID    %usr %system  %guest   %wait    %CPU   CPU  minflt/s  majflt/s     VSZ     RSS   %MEM   kB_rd/s   kB_wr/s kB_ccwr/s iodelay  Command
10:36:28 AM  1006    221047   37.00   63.00    0.00    0.00  100.00    24    483.00      0.00  710752  636224   0.24   8599.50      0.00      0.00       0  perf_experiment

# Time        UID       PID    %usr %system  %guest   %wait    %CPU   CPU  minflt/s  majflt/s     VSZ     RSS   %MEM   kB_rd/s   kB_wr/s kB_ccwr/s iodelay  Command
10:36:29 AM  1006    221047   37.00   63.00    0.00    0.00  100.00    24    477.00      0.00  711016  636444   0.24   8368.50      0.00      0.00       0  perf_experiment

# Time        UID       PID    %usr %system  %guest   %wait    %CPU   CPU  minflt/s  majflt/s     VSZ     RSS   %MEM   kB_rd/s   kB_wr/s kB_ccwr/s iodelay  Command
10:36:30 AM  1006    221047   37.00   63.00    0.00    0.00  100.00    24    492.00      0.00  711148  636620   0.24   8469.50      0.00      0.00       0  perf_experiment

# Time        UID       PID    %usr %system  %guest   %wait    %CPU   CPU  minflt/s  majflt/s     VSZ     RSS   %MEM   kB_rd/s   kB_wr/s kB_ccwr/s iodelay  Command
10:36:31 AM  1006    221047   43.00   58.00    0.00    0.00  101.00    24    496.00      0.00  711388  636812   0.24   8422.00      0.00      0.00       0  perf_experiment

# Time        UID       PID    %usr %system  %guest   %wait    %CPU   CPU  minflt/s  majflt/s     VSZ     RSS   %MEM   kB_rd/s   kB_wr/s kB_ccwr/s iodelay  Command
10:36:32 AM  1006    221047   33.00   66.00    0.00    0.00   99.00    24   1404.00      0.00  711524  636996   0.24   8769.50      0.00      0.00       0  perf_experiment

# Time        UID       PID    %usr %system  %guest   %wait    %CPU   CPU  minflt/s  majflt/s     VSZ     RSS   %MEM   kB_rd/s   kB_wr/s kB_ccwr/s iodelay  Command
10:36:33 AM  1006    221047   40.00   60.00    0.00    0.00  100.00    24   1170.00      0.00  711652  637156   0.24   8473.00      0.00      0.00       0  perf_experiment

# Time        UID       PID    %usr %system  %guest   %wait    %CPU   CPU  minflt/s  majflt/s     VSZ     RSS   %MEM   kB_rd/s   kB_wr/s kB_ccwr/s iodelay  Command
10:36:34 AM  1006    221047   38.00   60.00    0.00    0.00   98.00    24   9125.00      0.00  711920  637392   0.24   8192.50  32768.00      0.00       2  perf_experiment

# Time        UID       PID    %usr %system  %guest   %wait    %CPU   CPU  minflt/s  majflt/s     VSZ     RSS   %MEM   kB_rd/s   kB_wr/s kB_ccwr/s iodelay  Command
10:36:35 AM  1006    221047   37.00   63.00    0.00    0.00  100.00    24    909.00      0.00  712048  637528   0.24   8808.50      0.00      0.00       0  perf_experiment

# Time        UID       PID    %usr %system  %guest   %wait    %CPU   CPU  minflt/s  majflt/s     VSZ     RSS   %MEM   kB_rd/s   kB_wr/s kB_ccwr/s iodelay  Command
10:36:36 AM  1006    221047   40.00   60.00    0.00    0.00  100.00    24    520.00      0.00  712320  637752   0.24   8396.00      0.00      0.00       0  perf_experiment

# Time        UID       PID    %usr %system  %guest   %wait    %CPU   CPU  minflt/s  majflt/s     VSZ     RSS   %MEM   kB_rd/s   kB_wr/s kB_ccwr/s iodelay  Command