4,Faster,3,5000000,2500000,32,128,59489,5000000


resource usage stats

Linux 5.4.0-42-generic (arcon1) 	10/25/2020 	_x86_64_	(64 CPU)

# Time        UID       PID    %usr %system  %guest   %wait    %CPU   CPU  minflt/s  majflt/s     VSZ     RSS   %MEM   kB_rd/s   kB_wr/s kB_ccwr/s iodelay  Command
05:01:48 AM  1006    220085   65.00   34.00    0.00    0.00   99.00     7 145635.00      0.00  662664  587912   0.22      0.00      4.00      0.00       0  perf_experiment

# Time        UID       PID    %usr %system  %guest   %wait    %CPU   CPU  minflt/s  majflt/s     VSZ     RSS   %MEM   kB_rd/s   kB_wr/s kB_ccwr/s iodelay  Command
05:01:49 AM  1006    220085   83.00   17.00    0.00    0.00  100.00     7  11932.00      0.00  669000  594240   0.23      0.00      0.00      0.00       0  perf_experiment

# Time        UID       PID    %usr %system  %guest   %wait    %CPU   CPU  minflt/s  majflt/s     VSZ     RSS   %MEM   kB_rd/s   kB_wr/s kB_ccwr/s iodelay  Command
05:01:50 AM  1006    220085   84.00   16.00    0.00    0.00  100.00     7  30198.00      0.00  674940  600276   0.23      0.00      0.00      0.00       0  perf_experiment

# Time        UID       PID    %usr %system  %guest   %wait    %CPU   CPU  minflt/s  majflt/s     VSZ     RSS   %MEM   kB_rd/s   kB_wr/s kB_ccwr/s iodelay  Command
05:01:51 AM  1006    220085   80.00   15.00    0.00    0.00   95.00     7  38829.00      0.00  680352  605596   0.23      0.00  65536.00      0.00       4  perf_experiment

# Time        UID       PID    %usr %system  %guest   %wait    %CPU   CPU  minflt/s  majflt/s     VSZ     RSS   %MEM   kB_rd/s   kB_wr/s kB_ccwr/s iodelay  Command
05:01:52 AM  1006    220085   79.00   14.00    0.00    0.00   93.00     7  42935.00      0.00  685368  610664   0.23      0.00  98304.00      0.00       7  perf_experiment

# Time        UID       PID    %usr %system  %guest   %wait    %CPU   CPU  minflt/s  majflt/s     VSZ     RSS   %MEM   kB_rd/s   kB_wr/s kB_ccwr/s iodelay  Command
05:01:53 AM  1006    220085   83.00   13.00    0.00    0.00   96.00     7  23061.00      0.00  690516  615756   0.23      0.00  65536.00      0.00       5  perf_experiment

# Time        UID       PID    %usr %system  %guest   %wait    %CPU   CPU  minflt/s  majflt/s     VSZ     RSS   %MEM   kB_rd/s   kB_wr/s kB_ccwr/s iodelay  Command
05:01:54 AM  1006    220085   79.00   13.00    0.00    0.00   92.00     7  34369.00      0.00  695268  620524   0.24      0.00  98304.00      0.00       7  perf_experiment

# Time        UID       PID    %usr %system  %guest   %wait    %CPU   CPU  minflt/s  majflt/s     VSZ     RSS   %MEM   kB_rd/s   kB_wr/s kB_ccwr/s iodelay  Command
05:01:55 AM  1006    220085   92.00    6.00    0.00    0.00   98.00     7   9429.00      0.00  696984  622328   0.24   5710.50  32768.00      0.00       3  perf_experiment

# Time        UID       PID    %usr %system  %guest   %wait    %CPU   CPU  minflt/s  majflt/s     VSZ     RSS   %MEM   kB_rd/s   kB_wr/s kB_ccwr/s iodelay  Command
05:01:56 AM  1006    220085   97.00    3.00    0.00    0.00  100.00     7   1025.00      0.00  697256  622520   0.24   8236.00      0.00      0.00       0  perf_experiment

# Time        UID       PID    %usr %system  %guest   %wait    %CPU   CPU  minflt/s  majflt/s     VSZ     RSS   %MEM   kB_rd/s   kB_wr/s kB_ccwr/s iodelay  Command
05:01:57 AM  1006    220085   99.00    1.00    0.00    0.00  100.00     7    594.00      0.00  697256  622616   0.24   8271.00      0.00      0.00       0  perf_experiment

# Time        UID       PID    %usr %system  %guest   %wait    %CPU   CPU  minflt/s  majflt/s     VSZ     RSS   %MEM   kB_rd/s   kB_wr/s kB_ccwr/s iodelay  Command
05:01:58 AM  1006    220085   98.00    1.00    0.00    0.00   99.00     7    607.00      0.00  697388  622748   0.24   8067.50      0.00      0.00       0  perf_experiment

# Time        UID       PID    %usr %system  %guest   %wait    %CPU   CPU  minflt/s  majflt/s     VSZ     RSS   %MEM   kB_rd/s   kB_wr/s kB_ccwr/s iodelay  Command
05:01:59 AM  1006    220085   98.00    3.00    0.00    0.00  101.00     7   1179.00      0.00  697632  622904   0.24   8676.00      0.00      0.00       0  perf_experiment

# Time        UID       PID    %usr %system  %guest   %wait    %CPU   CPU  minflt/s  majflt/s     VSZ     RSS   %MEM   kB_rd/s   kB_wr/s kB_ccwr/s iodelay  Command
05:02:00 AM  1006    220085   98.00    2.00    0.00    0.00  100.00     7    609.00      0.00  697632  623024   0.24   8148.00      0.00      0.00       0  perf_experiment

# Time        UID       PID    %usr %system  %guest   %wait    %CPU   CPU  minflt/s  majflt/s     VSZ     RSS   %MEM   kB_rd/s   kB_wr/s kB_ccwr/s iodelay  Command
05:02:01 AM  1006    220085   99.00    1.00    0.00    0.00  100.00     7    614.00      0.00  697896  623184   0.24   8340.00      0.00      0.00       0  perf_experiment

# Time        UID       PID    %usr %system  %guest   %wait    %CPU   CPU  minflt/s  majflt/s     VSZ     RSS   %MEM   kB_rd/s   kB_wr/s kB_ccwr/s iodelay  Command
05:02:02 AM  1006    220085   98.00    2.00    0.00    0.00  100.00     7   1157.00      0.00  697896  623300   0.24   8368.50      0.00      0.00       0  perf_experiment

# Time        UID       PID    %usr %system  %guest   %wait    %CPU   CPU  minflt/s  majflt/s     VSZ     RSS   %MEM   kB_rd/s   kB_wr/s kB_ccwr/s iodelay  Command
05:02:03 AM  1006    220085   99.00    1.00    0.00    0.00  100.00     7    620.00      0.00  698164  623412   0.24   8145.50      0.00      0.00       0  perf_experiment

# Time        UID       PID    %usr %system  %guest   %wait    %CPU   CPU  minflt/s  majflt/s     VSZ     RSS   %MEM   kB_rd/s   kB_wr/s kB_ccwr/s iodelay  Command
05:02:04 AM  1006    220085   98.00    2.00    0.00    0.00  100.00     7    616.00      0.00  698164  623564   0.24   8528.50      0.00      0.00       0  perf_experiment

# Time        UID       PID    %usr %system  %guest   %wait    %CPU   CPU  minflt/s  majflt/s     VSZ     RSS   %MEM   kB_rd/s   kB_wr/s kB_ccwr/s iodelay  Command
05:02:05 AM  1006    220085   93.00    4.00    0.00    0.00   97.00     7   8784.00      0.00  698300  623684   0.24   8102.50  32768.00      0.00       2  perf_experiment

# Time        UID       PID    %usr %system  %guest   %wait    %CPU   CPU  minflt/s  majflt/s     VSZ     RSS   %MEM   kB_rd/s   kB_wr/s kB_ccwr/s iodelay  Command
05:02:06 AM  1006    220085   99.00    1.00    0.00    0.00  100.00     7   1136.00      0.00  698436  623840   0.24   8105.50      0.00      0.00       0  perf_experiment

# Time        UID       PID    %usr %system  %guest   %wait    %CPU   CPU  minflt/s  majflt/s     VSZ     RSS   %MEM   kB_rd/s   kB_wr/s kB_ccwr/s iodelay  Command
05:02:07 AM  1006    220085   98.00    2.00    0.00    0.00  100.00     7    606.00      0.00  698568  623952   0.24   8432.00      0.00      0.00       0  perf_experiment

# Time        UID       PID    %usr %system  %guest   %wait    %CPU   CPU  minflt/s  majflt/s     VSZ     RSS   %MEM   kB_rd/s   kB_wr/s kB_ccwr/s iodelay  Command
05:02:08 AM  1006    220085   98.00    2.00    0.00    0.00  100.00     7    618.00      0.00  698704  624088   0.24   8428.50      0.00      0.00       0  perf_experiment

# Time        UID       PID    %usr %system  %guest   %wait    %CPU   CPU  minflt/s  majflt/s     VSZ     RSS   %MEM   kB_rd/s   kB_wr/s kB_ccwr/s iodelay  Command
05:02:09 AM  1006    220085  100.00    1.00    0.00    0.00  101.00     7    586.00      0.00  698840  624220   0.24   8160.50      0.00      0.00       0  perf_experiment

# Time        UID       PID    %usr %system  %guest   %wait    %CPU   CPU  minflt/s  majflt/s     VSZ     RSS   %MEM   kB_rd/s   kB_wr/s kB_ccwr/s iodelay  Command
05:02:10 AM  1006    220085   99.00    1.00    0.00    0.00  100.00     7    632.00      0.00  698972  624380   0.24   8270.00      0.00      0.00       0  perf_experiment

# Time        UID       PID    %usr %system  %guest   %wait    %CPU   CPU  minflt/s  majflt/s     VSZ     RSS   %MEM   kB_rd/s   kB_wr/s kB_ccwr/s iodelay  Command
05:02:11 AM  1006    220085   97.00    3.00    0.00    0.00  100.00     7    619.00      0.00  699108  624492   0.24   8532.50      0.00      0.00       0  perf_experiment

# Time        UID       PID    %usr %system  %guest   %wait    %CPU   CPU  minflt/s  majflt/s     VSZ     RSS   %MEM   kB_rd/s   kB_wr/s kB_ccwr/s iodelay  Command
05:02:12 AM  1006    220085   96.00    3.00    0.00    0.00   99.00     7    608.00      0.00  699244  624620   0.24   8293.00      0.00      0.00       0  perf_experiment

# Time        UID       PID    %usr %system  %guest   %wait    %CPU   CPU  minflt/s  majflt/s     VSZ     RSS   %MEM   kB_rd/s   kB_wr/s kB_ccwr/s iodelay  Command
05:02:13 AM  1006    220085   98.00    2.00    0.00    0.00  100.00     7   1205.00      0.00  699376  624760   0.24   8243.50      0.00      0.00       0  perf_experiment

# Time        UID       PID    %usr %system  %guest   %wait    %CPU   CPU  minflt/s  majflt/s     VSZ     RSS   %MEM   kB_rd/s   kB_wr/s kB_ccwr/s iodelay  Command
05:02:14 AM  1006    220085  100.00    1.00    0.00    0.00  101.00     7    681.00      0.00  699512  624912   0.24   8210.50      0.00      0.00       0  perf_experiment

# Time        UID       PID    %usr %system  %guest   %wait    %CPU   CPU  minflt/s  majflt/s     VSZ     RSS   %MEM   kB_rd/s   kB_wr/s kB_ccwr/s iodelay  Command
05:02:15 AM  1006    220085   98.00    2.00    0.00    0.00  100.00     7    697.00      0.00  699648  625032   0.24   8446.00      0.00      0.00       0  perf_experiment

# Time        UID       PID    %usr %system  %guest   %wait    %CPU   CPU  minflt/s  majflt/s     VSZ     RSS   %MEM   kB_rd/s   kB_wr/s kB_ccwr/s iodelay  Command
05:02:16 AM  1006    220085   96.00    4.00    0.00    0.00  100.00     7    643.00      0.00  699784  625160   0.24   8368.00      0.00      0.00       0  perf_experiment

# Time        UID       PID    %usr %system  %guest   %wait    %CPU   CPU  minflt/s  majflt/s     VSZ     RSS   %MEM   kB_rd/s   kB_wr/s kB_ccwr/s iodelay  Command
05:02:17 AM  1006    220085   96.00    4.00    0.00    0.00  100.00     7    627.00      0.00  699916  625316   0.24   8312.00      0.00      0.00       0  perf_experiment

# Time        UID       PID    %usr %system  %guest   %wait    %CPU   CPU  minflt/s  majflt/s     VSZ     RSS   %MEM   kB_rd/s   kB_wr/s kB_ccwr/s iodelay  Command
05:02:18 AM  1006    220085   97.00    3.00    0.00    0.00  100.00     7    639.00      0.00  700188  625436   0.24   8625.00      0.00      0.00       0  perf_experiment

# Time        UID       PID    %usr %system  %guest   %wait    %CPU   CPU  minflt/s  majflt/s     VSZ     RSS   %MEM   kB_rd/s   kB_wr/s kB_ccwr/s iodelay  Command
05:02:19 AM  1006    220085   99.00    0.00    0.00    0.00   99.00     7   1224.00      0.00  700308  625604   0.24   8225.50      0.00      0.00       0  perf_experiment

# Time        UID       PID    %usr %system  %guest   %wait    %CPU   CPU  minflt/s  majflt/s     VSZ     RSS   %MEM   kB_rd/s   kB_wr/s kB_ccwr/s iodelay  Command
05:02:20 AM  1006    220085   95.00    2.00    0.00    0.00   97.00     7   8896.00      0.00  700444  625756   0.24   8017.50  32768.00      0.00       3  perf_experiment

# Time        UID       PID    %usr %system  %guest   %wait    %CPU   CPU  minflt/s  majflt/s     VSZ     RSS   %MEM   kB_rd/s   kB_wr/s kB_ccwr/s iodelay  Command
05:02:21 AM  1006    220085   99.00    2.00    0.00    0.00  101.00     7    719.00      0.00  700572  625860   0.24   8638.50      0.00      0.00       0  perf_experiment

# Time        UID       PID    %usr %system  %guest   %wait    %CPU   CPU  minflt/s  majflt/s     VSZ     RSS   %MEM   kB_rd/s   kB_wr/s kB_ccwr/s iodelay  Command
05:02:22 AM  1006    220085   98.00    2.00    0.00    0.00  100.00     7    611.00      0.00  700704  626024   0.24   8250.00      0.00      0.00       0  perf_experiment

# Time        UID       PID    %usr %system  %guest   %wait    %CPU   CPU  minflt/s  majflt/s     VSZ     RSS   %MEM   kB_rd/s   kB_wr/s kB_ccwr/s iodelay  Command
05:02:23 AM  1006    220085   98.00    2.00    0.00    0.00  100.00     7    588.00      0.00  700840  626128   0.24   8139.00      0.00      0.00       0  perf_experiment

# Time        UID       PID    %usr %system  %guest   %wait    %CPU   CPU  minflt/s  majflt/s     VSZ     RSS   %MEM   kB_rd/s   kB_wr/s kB_ccwr/s iodelay  Command
05:02:24 AM  1006    220085   97.00    3.00    0.00    0.00  100.00     7    615.00      0.00  700976  626232   0.24   8324.50      0.00      0.00       0  perf_experiment

# Time        UID       PID    %usr %system  %guest   %wait    %CPU   CPU  minflt/s  majflt/s     VSZ     RSS   %MEM   kB_rd/s   kB_wr/s kB_ccwr/s iodelay  Command
05:02:25 AM  1006    220085   99.00    1.00    0.00    0.00  100.00     7    635.00      0.00  701100  626388   0.24   8602.50      0.00      0.00       0  perf_experiment

# Time        UID       PID    %usr %system  %guest   %wait    %CPU   CPU  minflt/s  majflt/s     VSZ     RSS   %MEM   kB_rd/s   kB_wr/s kB_ccwr/s iodelay  Command
05:02:26 AM  1006    220085   97.00    3.00    0.00    0.00  100.00     7    625.00      0.00  701232  626528   0.24   8251.00      0.00      0.00       0  perf_experiment

# Time        UID       PID    %usr %system  %guest   %wait    %CPU   CPU  minflt/s  majflt/s     VSZ     RSS   %MEM   kB_rd/s   kB_wr/s kB_ccwr/s iodelay  Command
05:02:27 AM  1006    220085   98.00    2.00    0.00    0.00  100.00     7    597.00      0.00  701368  626680   0.24   8015.50      0.00      0.00       0  perf_experiment

# Time        UID       PID    %usr %system  %guest   %wait    %CPU   CPU  minflt/s  majflt/s     VSZ     RSS   %MEM   kB_rd/s   kB_wr/s kB_ccwr/s iodelay  Command
05:02:28 AM  1006    220085   97.00    3.00    0.00    0.00  100.00     7    622.00      0.00  701492  626820   0.24   8506.50      0.00      0.00       0  perf_experiment

# Time        UID       PID    %usr %system  %guest   %wait    %CPU   CPU  minflt/s  majflt/s     VSZ     RSS   %MEM   kB_rd/s   kB_wr/s kB_ccwr/s iodelay  Command
05:02:29 AM  1006    220085   99.00    1.00    0.00    0.00  100.00     7    627.00      0.00  701624  626944   0.24   8560.00      0.00      0.00       0  perf_experiment

# Time        UID       PID    %usr %system  %guest   %wait    %CPU   CPU  minflt/s  majflt/s     VSZ     RSS   %MEM   kB_rd/s   kB_wr/s kB_ccwr/s iodelay  Command
05:02:30 AM  1006    220085   97.00    3.00    0.00    0.00  100.00     7    606.00      0.00  701760  627072   0.24   8269.00      0.00      0.00       0  perf_experiment

# Time        UID       PID    %usr %system  %guest   %wait    %CPU   CPU  minflt/s  majflt/s     VSZ     RSS   %MEM   kB_rd/s   kB_wr/s kB_ccwr/s iodelay  Command
05:02:31 AM  1006    220085   98.00    2.00    0.00    0.00  100.00     7   1364.00      0.00  701896  627232   0.24   8716.00      0.00      0.00       0  perf_experiment

# Time        UID       PID    %usr %system  %guest   %wait    %CPU   CPU  minflt/s  majflt/s     VSZ     RSS   %MEM   kB_rd/s   kB_wr/s kB_ccwr/s iodelay  Command
05:02:32 AM  1006    220085   97.00    3.00    0.00    0.00  100.00     7    792.00      0.00  702016  627344   0.24   8352.00      0.00      0.00       0  perf_experiment

# Time        UID       PID    %usr %system  %guest   %wait    %CPU   CPU  minflt/s  majflt/s     VSZ     RSS   %MEM   kB_rd/s   kB_wr/s kB_ccwr/s iodelay  Command
05:02:33 AM  1006    220085   98.00    2.00    0.00    0.00  100.00     7    751.00      0.00  702152  627472   0.24   8443.00      0.00      0.00       0  perf_experiment

# Time        UID       PID    %usr %system  %guest   %wait    %CPU   CPU  minflt/s  majflt/s     VSZ     RSS   %MEM   kB_rd/s   kB_wr/s kB_ccwr/s iodelay  Command
05:02:34 AM  1006    220085   95.00    2.00    0.00    0.00   97.00     7   8860.00      0.00  702288  627628   0.24   8262.00  32768.00      0.00       2  perf_experiment

# Time        UID       PID    %usr %system  %guest   %wait    %CPU   CPU  minflt/s  majflt/s     VSZ     RSS   %MEM   kB_rd/s   kB_wr/s kB_ccwr/s iodelay  Command
05:02:35 AM  1006    220085   98.00    3.00    0.00    0.00  101.00     7    623.00      0.00  702424  627760   0.24   8040.50      0.00      0.00       0  perf_experiment

# Time        UID       PID    %usr %system  %guest   %wait    %CPU   CPU  minflt/s  majflt/s     VSZ     RSS   %MEM   kB_rd/s   kB_wr/s kB_ccwr/s iodelay  Command
05:02:36 AM  1006    220085   98.02    0.00    0.00    0.00   98.02     7    608.91      0.00  702544  627872   0.24   8291.09      0.00      0.00       0  perf_experiment

# Time        UID       PID    %usr %system  %guest   %wait    %CPU   CPU  minflt/s  majflt/s     VSZ     RSS   %MEM   kB_rd/s   kB_wr/s kB_ccwr/s iodelay  Command
05:02:37 AM  1006    220085   96.00    5.00    0.00    0.00  101.00     7    650.00      0.00  702676  628036   0.24   8618.00      0.00      0.00       0  perf_experiment

# Time        UID       PID    %usr %system  %guest   %wait    %CPU   CPU  minflt/s  majflt/s     VSZ     RSS   %MEM   kB_rd/s   kB_wr/s kB_ccwr/s iodelay  Command
05:02:38 AM  1006    220085   96.00    4.00    0.00    0.00  100.00     7    622.00      0.00  702812  628164   0.24   8506.50      0.00      0.00       0  perf_experiment

# Time        UID       PID    %usr %system  %guest   %wait    %CPU   CPU  minflt/s  majflt/s     VSZ     RSS   %MEM   kB_rd/s   kB_wr/s kB_ccwr/s iodelay  Command
05:02:39 AM  1006    220085   96.00    4.00    0.00    0.00  100.00     7    596.00      0.00  702948  628284   0.24   8148.00      0.00      0.00       0  perf_experiment

# Time        UID       PID    %usr %system  %guest   %wait    %CPU   CPU  minflt/s  majflt/s     VSZ     RSS   %MEM   kB_rd/s   kB_wr/s kB_ccwr/s iodelay  Command
05:02:40 AM  1006    220085   98.00    2.00    0.00    0.00  100.00     7    653.00      0.00  703068  628444   0.24   8504.00      0.00      0.00       0  perf_experiment

# Time        UID       PID    %usr %system  %guest   %wait    %CPU   CPU  minflt/s  majflt/s     VSZ     RSS   %MEM   kB_rd/s   kB_wr/s kB_ccwr/s iodelay  Command
05:02:41 AM  1006    220085   98.00    2.00    0.00    0.00  100.00     7    604.00      0.00  703204  628572   0.24   8233.00      0.00      0.00       0  perf_experiment

# Time        UID       PID    %usr %system  %guest   %wait    %CPU   CPU  minflt/s  majflt/s     VSZ     RSS   %MEM   kB_rd/s   kB_wr/s kB_ccwr/s iodelay  Command
05:02:42 AM  1006    220085   99.00    1.00    0.00    0.00  100.00     7    623.00      0.00  703340  628692   0.24   8493.00      0.00      0.00       0  perf_experiment

# Time        UID       PID    %usr %system  %guest   %wait    %CPU   CPU  minflt/s  majflt/s     VSZ     RSS   %MEM   kB_rd/s   kB_wr/s kB_ccwr/s iodelay  Command
05:02:43 AM  1006    220085   97.00    3.00    0.00    0.00  100.00     7    620.00      0.00  703476  628856   0.24   8444.00      0.00      0.00       0  perf_experiment

# Time        UID       PID    %usr %system  %guest   %wait    %CPU   CPU  minflt/s  majflt/s     VSZ     RSS   %MEM   kB_rd/s   kB_wr/s kB_ccwr/s iodelay  Command
05:02:44 AM  1006    220085   97.00    3.00    0.00    0.00  100.00     7    627.00      0.00  703596  628972   0.24   8569.00      0.00      0.00       0  perf_experiment

# Time        UID       PID    %usr %system  %guest   %wait    %CPU   CPU  minflt/s  majflt/s     VSZ     RSS   %MEM   kB_rd/s   kB_wr/s kB_ccwr/s iodelay  Command
05:02:45 AM  1006    220085   98.00    2.00    0.00    0.00  100.00     7    595.00      0.00  703732  629096   0.24   8231.50      0.00      0.00       0  perf_experiment

# Time        UID       PID    %usr %system  %guest   %wait    %CPU   CPU  minflt/s  majflt/s     VSZ     RSS   %MEM   kB_rd/s   kB_wr/s kB_ccwr/s iodelay  Command
05:02:46 AM  1006    220085   97.00    3.00    0.00    0.00  100.00     7   1337.00      0.00  703864  629256   0.24   8779.00      0.00      0.00       0  perf_experiment

# Time        UID       PID    %usr %system  %guest   %wait    %CPU   CPU  minflt/s  majflt/s     VSZ     RSS   %MEM   kB_rd/s   kB_wr/s kB_ccwr/s iodelay  Command
05:02:47 AM  1006    220085   98.00    2.00    0.00    0.00  100.00     7    893.00      0.00  704128  629416   0.24   8486.50      0.00      0.00       0  perf_experiment

# Time        UID       PID    %usr %system  %guest   %wait    %CPU   CPU  minflt/s  majflt/s     VSZ     RSS   %MEM   kB_rd/s   kB_wr/s kB_ccwr/s iodelay  Command
05:02:48 AM  1006    220085   94.00    3.00    0.00    0.00   97.00     7   8972.00      0.00  704120  629528   0.24   8285.00  32768.00      0.00       2  perf_experiment

# Time        UID       PID    %usr %system  %guest   %wait    %CPU   CPU  minflt/s  majflt/s     VSZ     RSS   %MEM   kB_rd/s   kB_wr/s kB_ccwr/s iodelay  Command
05:02:49 AM  1006    220085   98.00    2.00    0.00    0.00  100.00     7    778.00      0.00  704256  629664   0.24   8650.50      0.00      0.00       0  perf_experiment

# Time        UID       PID    %usr %system  %guest   %wait    %CPU   CPU  minflt/s  majflt/s     VSZ     RSS   %MEM   kB_rd/s   kB_wr/s kB_ccwr/s iodelay  Command
05:02:50 AM  1006    220085   99.00    1.00    0.00    0.00  100.00     7    633.00      0.00  704528  629808   0.24   8174.00      0.00      0.00       0  perf_experiment

# Time        UID       PID    %usr %system  %guest   %wait    %CPU   CPU  minflt/s  majflt/s     VSZ     RSS   %MEM   kB_rd/s   kB_wr/s kB_ccwr/s iodelay  Command
05:02:51 AM  1006    220085   98.00    2.00    0.00    0.00  100.00     7    651.00      0.00  704648  629952   0.24   8238.00      0.00      0.00       0  perf_experiment

# Time        UID       PID    %usr %system  %guest   %wait    %CPU   CPU  minflt/s  majflt/s     VSZ     RSS   %MEM   kB_rd/s   kB_wr/s kB_ccwr/s iodelay  Command
05:02:52 AM  1006    220085   99.00    1.00    0.00    0.00  100.00     7    677.00      0.00  704784  630064   0.24   8697.00      0.00      0.00       0  perf_experiment

# Time        UID       PID    %usr %system  %guest   %wait    %CPU   CPU  minflt/s  majflt/s     VSZ     RSS   %MEM   kB_rd/s   kB_wr/s kB_ccwr/s iodelay  Command
05:02:53 AM  1006    220085   97.00    3.00    0.00    0.00  100.00     7    689.00      0.00  704916  630212   0.24   8973.50      0.00      0.00       0  perf_experiment

# Time        UID       PID    %usr %system  %guest   %wait    %CPU   CPU  minflt/s  majflt/s     VSZ     RSS   %MEM   kB_rd/s   kB_wr/s kB_ccwr/s iodelay  Command
05:02:54 AM  1006    220085   98.00    2.00    0.00    0.00  100.00     7    617.00      0.00  705052  630364   0.24   8129.50      0.00      0.00       0  perf_experiment

# Time        UID       PID    %usr %system  %guest   %wait    %CPU   CPU  minflt/s  majflt/s     VSZ     RSS   %MEM   kB_rd/s   kB_wr/s kB_ccwr/s iodelay  Command
05:02:55 AM  1006    220085   98.00    2.00    0.00    0.00  100.00     7    620.00      0.00  705172  630500   0.24   8275.50      0.00      0.00       0  perf_experiment

# Time        UID       PID    %usr %system  %guest   %wait    %CPU   CPU  minflt/s  majflt/s     VSZ     RSS   %MEM   kB_rd/s   kB_wr/s kB_ccwr/s iodelay  Command
05:02:56 AM  1006    220085   99.00    1.00    0.00    0.00  100.00     7    625.00      0.00  705308  630628   0.24   8526.50      0.00      0.00       0  perf_experiment

# Time        UID       PID    %usr %system  %guest   %wait    %CPU   CPU  minflt/s  majflt/s     VSZ     RSS   %MEM   kB_rd/s   kB_wr/s kB_ccwr/s iodelay  Command
05:02:57 AM  1006    220085   98.00    2.00    0.00    0.00  100.00     7    631.00      0.00  705444  630756   0.24   8614.50      0.00      0.00       0  perf_experiment

# Time        UID       PID    %usr %system  %guest   %wait    %CPU   CPU  minflt/s  majflt/s     VSZ     RSS   %MEM   kB_rd/s   kB_wr/s kB_ccwr/s iodelay  Command
05:02:58 AM  1006    220085   99.00    1.00    0.00    0.00  100.00     7    655.00      0.00  705580  630916   0.24   8506.50      0.00      0.00       0  perf_experiment

# Time        UID       PID    %usr %system  %guest   %wait    %CPU   CPU  minflt/s  majflt/s     VSZ     RSS   %MEM   kB_rd/s   kB_wr/s kB_ccwr/s iodelay  Command
05:02:59 AM  1006    220085   97.00    3.00    0.00    0.00  100.00     7    635.00      0.00  705700  631028   0.24   8732.00      0.00      0.00       0  perf_experiment

# Time        UID       PID    %usr %system  %guest   %wait    %CPU   CPU  minflt/s  majflt/s     VSZ     RSS   %MEM   kB_rd/s   kB_wr/s kB_ccwr/s iodelay  Command
05:03:00 AM  1006    220085   97.00    3.00    0.00    0.00  100.00     7    637.00      0.00  705836  631156   0.24   8615.50      0.00      0.00       0  perf_experiment

# Time        UID       PID    %usr %system  %guest   %wait    %CPU   CPU  minflt/s  majflt/s     VSZ     RSS   %MEM   kB_rd/s   kB_wr/s kB_ccwr/s iodelay  Command
05:03:01 AM  1006    220085   96.00    4.00    0.00    0.00  100.00     7    634.00      0.00  705968  631320   0.24   8624.50      0.00      0.00       0  perf_experiment

# Time        UID       PID    %usr %system  %guest   %wait    %CPU   CPU  minflt/s  majflt/s     VSZ     RSS   %MEM   kB_rd/s   kB_wr/s kB_ccwr/s iodelay  Command
05:03:02 AM  1006    220085   95.00    3.00    0.00    0.00   98.00     7   8814.00      0.00  706104  631484   0.24   8366.00  32768.00      0.00       3  perf_experiment

# Time        UID       PID    %usr %system  %guest   %wait    %CPU   CPU  minflt/s  majflt/s     VSZ     RSS   %MEM   kB_rd/s   kB_wr/s kB_ccwr/s iodelay  Command
05:03:03 AM  1006    220085   97.00    2.00    0.00    0.00   99.00     7    623.00      0.00  706236  631600   0.24   8547.00      0.00      0.00       0  perf_experiment

# Time        UID       PID    %usr %system  %guest   %wait    %CPU   CPU  minflt/s  majflt/s     VSZ     RSS   %MEM   kB_rd/s   kB_wr/s kB_ccwr/s iodelay  Command
05:03:04 AM  1006    220085   98.00    3.00    0.00    0.00  101.00     7    626.00      0.00  706360  631728   0.24   8533.50      0.00      0.00       0  perf_experiment

# Time        UID       PID    %usr %system  %guest   %wait    %CPU   CPU  minflt/s  majflt/s     VSZ     RSS   %MEM   kB_rd/s   kB_wr/s kB_ccwr/s iodelay  Command
05:03:05 AM  1006    220085   99.00    1.00    0.00    0.00  100.00     7    633.00      0.00  706496  631880   0.24   8576.50      0.00      0.00       0  perf_experiment

# Time        UID       PID    %usr %system  %guest   %wait    %CPU   CPU  minflt/s  majflt/s     VSZ     RSS   %MEM   kB_rd/s   kB_wr/s kB_ccwr/s iodelay  Command
05:03:06 AM  1006    220085   98.00    2.00    0.00    0.00  100.00     7   1398.00      0.00  706632  632016   0.24   8546.00      0.00      0.00       0  perf_experiment

# Time        UID       PID    %usr %system  %guest   %wait    %CPU   CPU  minflt/s  majflt/s     VSZ     RSS   %MEM   kB_rd/s   kB_wr/s kB_ccwr/s iodelay  Command
05:03:07 AM  1006    220085   97.00    3.00    0.00    0.00  100.00     7   1035.00      0.00  706752  632128   0.24   8300.00      0.00      0.00       0  perf_experiment

# Time        UID       PID    %usr %system  %guest   %wait    %CPU   CPU  minflt/s  majflt/s     VSZ     RSS   %MEM   kB_rd/s   kB_wr/s kB_ccwr/s iodelay  Command
05:03:08 AM  1006    220085   96.00    4.00    0.00    0.00  100.00     7   1089.00      0.00  706888  632272   0.24   8591.50      0.00      0.00       0  perf_experiment

# Time        UID       PID    %usr %system  %guest   %wait    %CPU   CPU  minflt/s  majflt/s     VSZ     RSS   %MEM   kB_rd/s   kB_wr/s kB_ccwr/s iodelay  Command
05:03:09 AM  1006    220085   98.00    2.00    0.00    0.00  100.00     7    669.00      0.00  707024  632412   0.24   8285.50      0.00      0.00       0  perf_experiment

# Time        UID       PID    %usr %system  %guest   %wait    %CPU   CPU  minflt/s  majflt/s     VSZ     RSS   %MEM   kB_rd/s   kB_wr/s kB_ccwr/s iodelay  Command
05:03:10 AM  1006    220085   99.00    1.00    0.00    0.00  100.00     7    687.00      0.00  707284  632572   0.24   8791.00      0.00      0.00       0  perf_experiment

# Time        UID       PID    %usr %system  %guest   %wait    %CPU   CPU  minflt/s  majflt/s     VSZ     RSS   %MEM   kB_rd/s   kB_wr/s kB_ccwr/s iodelay  Command
05:03:11 AM  1006    220085   97.00    4.00    0.00    0.00  101.00     7    610.00      0.00  707280  632684   0.24   8161.00      0.00      0.00       0  perf_experiment

# Time        UID       PID    %usr %system  %guest   %wait    %CPU   CPU  minflt/s  majflt/s     VSZ     RSS   %MEM   kB_rd/s   kB_wr/s kB_ccwr/s iodelay  Command
05:03:12 AM  1006    220085   97.00    2.00    0.00    0.00   99.00     7    631.00      0.00  707412  632820   0.24   8371.50      0.00      0.00       0  perf_experiment

# Time        UID       PID    %usr %system  %guest   %wait    %CPU   CPU  minflt/s  majflt/s     VSZ     RSS   %MEM   kB_rd/s   kB_wr/s kB_ccwr/s iodelay  Command
05:03:13 AM  1006    220085   97.00    3.00    0.00    0.00  100.00     7    660.00      0.00  707684  632972   0.24   8719.00      0.00      0.00       0  perf_experiment

# Time        UID       PID    %usr %system  %guest   %wait    %CPU   CPU  minflt/s  majflt/s     VSZ     RSS   %MEM   kB_rd/s   kB_wr/s kB_ccwr/s iodelay  Command
05:03:14 AM  1006    220085   98.00    3.00    0.00    0.00  101.00     7    605.00      0.00  707804  633132   0.24   8139.50      0.00      0.00       0  perf_experiment

# Time        UID       PID    %usr %system  %guest   %wait    %CPU   CPU  minflt/s  majflt/s     VSZ     RSS   %MEM   kB_rd/s   kB_wr/s kB_ccwr/s iodelay  Command
05:03:15 AM  1006    220085   98.00    1.00    0.00    0.00   99.00     7    649.00      0.00  707940  633228   0.24   8809.50      0.00      0.00       0  perf_experiment

# Time        UID       PID    %usr %system  %guest   %wait    %CPU   CPU  minflt/s  majflt/s     VSZ     RSS   %MEM   kB_rd/s   kB_wr/s kB_ccwr/s iodelay  Command