1,Faster,3,5000000,2500000,32,128,91384,5000000


resource usage stats

Linux 5.4.0-42-generic (arcon1) 	10/24/2020 	_x86_64_	(64 CPU)

# Time        UID       PID    %usr %system  %guest   %wait    %CPU   CPU  minflt/s  majflt/s     VSZ     RSS   %MEM   kB_rd/s   kB_wr/s kB_ccwr/s iodelay  Command
07:22:34 PM  1006    217532   78.00   21.00    0.00    0.00   99.00    51 144435.00      0.00  590180  582516   0.22      0.00      4.00      0.00       0  perf_experiment

# Time        UID       PID    %usr %system  %guest   %wait    %CPU   CPU  minflt/s  majflt/s     VSZ     RSS   %MEM   kB_rd/s   kB_wr/s kB_ccwr/s iodelay  Command
07:22:35 PM  1006    217532   87.00    1.00    0.00    0.00   88.00    51      2.00      0.00  590180  582516   0.22      0.00 163840.00      0.00      11  perf_experiment

# Time        UID       PID    %usr %system  %guest   %wait    %CPU   CPU  minflt/s  majflt/s     VSZ     RSS   %MEM   kB_rd/s   kB_wr/s kB_ccwr/s iodelay  Command
07:22:36 PM  1006    217532   86.14    0.00    0.00    0.00   86.14    51      0.99      0.00  590180  582516   0.22      0.00 162217.82      0.00      13  perf_experiment

# Time        UID       PID    %usr %system  %guest   %wait    %CPU   CPU  minflt/s  majflt/s     VSZ     RSS   %MEM   kB_rd/s   kB_wr/s kB_ccwr/s iodelay  Command
07:22:37 PM  1006    217532   84.00    3.00    0.00    0.00   87.00    51      2.00      0.00  590180  582516   0.22      0.00 196608.00      0.00      14  perf_experiment

# Time        UID       PID    %usr %system  %guest   %wait    %CPU   CPU  minflt/s  majflt/s     VSZ     RSS   %MEM   kB_rd/s   kB_wr/s kB_ccwr/s iodelay  Command
07:22:38 PM  1006    217532   88.00    1.00    0.00    0.00   89.00    51      1.00      0.00  590180  582516   0.22      0.00 163840.00      0.00      10  perf_experiment

# Time        UID       PID    %usr %system  %guest   %wait    %CPU   CPU  minflt/s  majflt/s     VSZ     RSS   %MEM   kB_rd/s   kB_wr/s kB_ccwr/s iodelay  Command
07:22:39 PM  1006    217532   87.00    1.00    0.00    0.00   88.00    51      1.00      0.00  590180  583024   0.22      0.00 131072.00      0.00      12  perf_experiment

# Time        UID       PID    %usr %system  %guest   %wait    %CPU   CPU  minflt/s  majflt/s     VSZ     RSS   %MEM   kB_rd/s   kB_wr/s kB_ccwr/s iodelay  Command
07:22:40 PM  1006    217532   90.00    1.00    0.00    0.00   91.00    51      0.00      0.00  590180  583024   0.22      0.00 131072.00      0.00      10  perf_experiment

# Time        UID       PID    %usr %system  %guest   %wait    %CPU   CPU  minflt/s  majflt/s     VSZ     RSS   %MEM   kB_rd/s   kB_wr/s kB_ccwr/s iodelay  Command
07:22:41 PM  1006    217532   96.00    2.00    0.00    0.00   98.00    51     47.00      0.00  658048  583024   0.22   6481.00  32768.00      0.00       2  perf_experiment

# Time        UID       PID    %usr %system  %guest   %wait    %CPU   CPU  minflt/s  majflt/s     VSZ     RSS   %MEM   kB_rd/s   kB_wr/s kB_ccwr/s iodelay  Command
07:22:42 PM  1006    217532   97.00    3.00    0.00    0.00  100.00    51   7403.00      0.00  658184  583412   0.22   8311.00      0.00      0.00       0  perf_experiment

# Time        UID       PID    %usr %system  %guest   %wait    %CPU   CPU  minflt/s  majflt/s     VSZ     RSS   %MEM   kB_rd/s   kB_wr/s kB_ccwr/s iodelay  Command
07:22:43 PM  1006    217532   99.00    1.00    0.00    0.00  100.00    51   4038.00      0.00  658320  583564   0.22   8365.50      0.00      0.00       0  perf_experiment

# Time        UID       PID    %usr %system  %guest   %wait    %CPU   CPU  minflt/s  majflt/s     VSZ     RSS   %MEM   kB_rd/s   kB_wr/s kB_ccwr/s iodelay  Command
07:22:44 PM  1006    217532   96.00    3.00    0.00    0.00   99.00    51   1666.00      0.00  658448  583712   0.22   8339.50      0.00      0.00       0  perf_experiment

# Time        UID       PID    %usr %system  %guest   %wait    %CPU   CPU  minflt/s  majflt/s     VSZ     RSS   %MEM   kB_rd/s   kB_wr/s kB_ccwr/s iodelay  Command
07:22:45 PM  1006    217532   96.00    4.00    0.00    0.00  100.00    51   3057.00      0.00  658696  583916   0.22   8355.00      0.00      0.00       0  perf_experiment

# Time        UID       PID    %usr %system  %guest   %wait    %CPU   CPU  minflt/s  majflt/s     VSZ     RSS   %MEM   kB_rd/s   kB_wr/s kB_ccwr/s iodelay  Command
07:22:46 PM  1006    217532   98.00    2.00    0.00    0.00  100.00    51   2926.00      0.00  658832  584060   0.22   8347.50      0.00      0.00       0  perf_experiment

# Time        UID       PID    %usr %system  %guest   %wait    %CPU   CPU  minflt/s  majflt/s     VSZ     RSS   %MEM   kB_rd/s   kB_wr/s kB_ccwr/s iodelay  Command
07:22:47 PM  1006    217532   95.00    5.00    0.00    0.00  100.00    51   2719.00      0.00  658968  584228   0.22   8344.00      0.00      0.00       0  perf_experiment

# Time        UID       PID    %usr %system  %guest   %wait    %CPU   CPU  minflt/s  majflt/s     VSZ     RSS   %MEM   kB_rd/s   kB_wr/s kB_ccwr/s iodelay  Command
07:22:48 PM  1006    217532   99.00    2.00    0.00    0.00  101.00    51   2704.00      0.00  659104  584380   0.22   8374.00      0.00      0.00       0  perf_experiment

# Time        UID       PID    %usr %system  %guest   %wait    %CPU   CPU  minflt/s  majflt/s     VSZ     RSS   %MEM   kB_rd/s   kB_wr/s kB_ccwr/s iodelay  Command
07:22:49 PM  1006    217532   97.00    3.00    0.00    0.00  100.00    51  12743.00      0.00  659376  584588   0.22   8265.50      0.00      0.00       0  perf_experiment

# Time        UID       PID    %usr %system  %guest   %wait    %CPU   CPU  minflt/s  majflt/s     VSZ     RSS   %MEM   kB_rd/s   kB_wr/s kB_ccwr/s iodelay  Command
07:22:50 PM  1006    217532   95.00    4.00    0.00    0.00   99.00    51   2920.00      0.00  659512  584772   0.22   8363.50      0.00      0.00       0  perf_experiment

# Time        UID       PID    %usr %system  %guest   %wait    %CPU   CPU  minflt/s  majflt/s     VSZ     RSS   %MEM   kB_rd/s   kB_wr/s kB_ccwr/s iodelay  Command
07:22:51 PM  1006    217532   97.00    4.00    0.00    0.00  101.00    51   2872.00      0.00  659636  584904   0.22   8372.00      0.00      0.00       0  perf_experiment

# Time        UID       PID    %usr %system  %guest   %wait    %CPU   CPU  minflt/s  majflt/s     VSZ     RSS   %MEM   kB_rd/s   kB_wr/s kB_ccwr/s iodelay  Command
07:22:52 PM  1006    217532   95.00    4.00    0.00    0.00   99.00    51   3115.00      0.00  659892  585108   0.22   8429.00      0.00      0.00       0  perf_experiment

# Time        UID       PID    %usr %system  %guest   %wait    %CPU   CPU  minflt/s  majflt/s     VSZ     RSS   %MEM   kB_rd/s   kB_wr/s kB_ccwr/s iodelay  Command
07:22:53 PM  1006    217532   97.00    3.00    0.00    0.00  100.00    51   2890.00      0.00  660024  585228   0.22   8450.00      0.00      0.00       0  perf_experiment

# Time        UID       PID    %usr %system  %guest   %wait    %CPU   CPU  minflt/s  majflt/s     VSZ     RSS   %MEM   kB_rd/s   kB_wr/s kB_ccwr/s iodelay  Command
07:22:54 PM  1006    217532   97.00    4.00    0.00    0.00  101.00    51   2758.00      0.00  660160  585396   0.22   8444.00      0.00      0.00       0  perf_experiment

# Time        UID       PID    %usr %system  %guest   %wait    %CPU   CPU  minflt/s  majflt/s     VSZ     RSS   %MEM   kB_rd/s   kB_wr/s kB_ccwr/s iodelay  Command
07:22:55 PM  1006    217532   97.00    3.00    0.00    0.00  100.00    51   2669.00      0.00  660432  585588   0.22   8443.50      0.00      0.00       0  perf_experiment

# Time        UID       PID    %usr %system  %guest   %wait    %CPU   CPU  minflt/s  majflt/s     VSZ     RSS   %MEM   kB_rd/s   kB_wr/s kB_ccwr/s iodelay  Command
07:22:56 PM  1006    217532   97.00    3.00    0.00    0.00  100.00    51   2537.00      0.00  660564  585796   0.22   8471.50      0.00      0.00       0  perf_experiment

# Time        UID       PID    %usr %system  %guest   %wait    %CPU   CPU  minflt/s  majflt/s     VSZ     RSS   %MEM   kB_rd/s   kB_wr/s kB_ccwr/s iodelay  Command
07:22:57 PM  1006    217532   97.00    3.00    0.00    0.00  100.00    51  12439.00      0.00  660696  585932   0.22   8371.00      0.00      0.00       0  perf_experiment

# Time        UID       PID    %usr %system  %guest   %wait    %CPU   CPU  minflt/s  majflt/s     VSZ     RSS   %MEM   kB_rd/s   kB_wr/s kB_ccwr/s iodelay  Command
07:22:58 PM  1006    217532   95.00    4.00    0.00    0.00   99.00    51   3166.00      0.00  660824  586092   0.22   8423.50      0.00      0.00       0  perf_experiment

# Time        UID       PID    %usr %system  %guest   %wait    %CPU   CPU  minflt/s  majflt/s     VSZ     RSS   %MEM   kB_rd/s   kB_wr/s kB_ccwr/s iodelay  Command
07:22:59 PM  1006    217532   97.00    3.00    0.00    0.00  100.00    51   2647.00      0.00  661088  586280   0.22   8447.50      0.00      0.00       0  perf_experiment

# Time        UID       PID    %usr %system  %guest   %wait    %CPU   CPU  minflt/s  majflt/s     VSZ     RSS   %MEM   kB_rd/s   kB_wr/s kB_ccwr/s iodelay  Command
07:23:00 PM  1006    217532   96.00    4.00    0.00    0.00  100.00    51   2707.00      0.00  661212  586480   0.22   8407.50      0.00      0.00       0  perf_experiment

# Time        UID       PID    %usr %system  %guest   %wait    %CPU   CPU  minflt/s  majflt/s     VSZ     RSS   %MEM   kB_rd/s   kB_wr/s kB_ccwr/s iodelay  Command
07:23:01 PM  1006    217532   98.00    3.00    0.00    0.00  101.00    51   2900.00      0.00  661348  586612   0.22   8450.50      0.00      0.00       0  perf_experiment

# Time        UID       PID    %usr %system  %guest   %wait    %CPU   CPU  minflt/s  majflt/s     VSZ     RSS   %MEM   kB_rd/s   kB_wr/s kB_ccwr/s iodelay  Command
07:23:02 PM  1006    217532   96.00    4.00    0.00    0.00  100.00    51   2866.00      0.00  661616  586800   0.22   8468.00      0.00      0.00       0  perf_experiment

# Time        UID       PID    %usr %system  %guest   %wait    %CPU   CPU  minflt/s  majflt/s     VSZ     RSS   %MEM   kB_rd/s   kB_wr/s kB_ccwr/s iodelay  Command
07:23:03 PM  1006    217532   96.00    3.00    0.00    0.00   99.00    51   2781.00      0.00  661732  586944   0.22   8432.00      0.00      0.00       0  perf_experiment

# Time        UID       PID    %usr %system  %guest   %wait    %CPU   CPU  minflt/s  majflt/s     VSZ     RSS   %MEM   kB_rd/s   kB_wr/s kB_ccwr/s iodelay  Command
07:23:04 PM  1006    217532   98.00    2.00    0.00    0.00  100.00    51   2569.00      0.00  661856  587112   0.22   8430.00      0.00      0.00       0  perf_experiment

# Time        UID       PID    %usr %system  %guest   %wait    %CPU   CPU  minflt/s  majflt/s     VSZ     RSS   %MEM   kB_rd/s   kB_wr/s kB_ccwr/s iodelay  Command
07:23:05 PM  1006    217532   99.00    1.00    0.00    0.00  100.00    51   2551.00      0.00  662124  587304   0.22   8416.00      0.00      0.00       0  perf_experiment

# Time        UID       PID    %usr %system  %guest   %wait    %CPU   CPU  minflt/s  majflt/s     VSZ     RSS   %MEM   kB_rd/s   kB_wr/s kB_ccwr/s iodelay  Command
07:23:06 PM  1006    217532   97.00    4.00    0.00    0.00  101.00    51   2430.00      0.00  662260  587488   0.22   8439.50      0.00      0.00       0  perf_experiment

# Time        UID       PID    %usr %system  %guest   %wait    %CPU   CPU  minflt/s  majflt/s     VSZ     RSS   %MEM   kB_rd/s   kB_wr/s kB_ccwr/s iodelay  Command
07:23:07 PM  1006    217532   99.00    1.00    0.00    0.00  100.00    51   2275.00      0.00  662392  587660   0.22   8430.00      0.00      0.00       0  perf_experiment

# Time        UID       PID    %usr %system  %guest   %wait    %CPU   CPU  minflt/s  majflt/s     VSZ     RSS   %MEM   kB_rd/s   kB_wr/s kB_ccwr/s iodelay  Command
07:23:08 PM  1006    217532   97.00    3.00    0.00    0.00  100.00    51  12720.00      0.00  662524  587800   0.22   8374.00      0.00      0.00       0  perf_experiment

# Time        UID       PID    %usr %system  %guest   %wait    %CPU   CPU  minflt/s  majflt/s     VSZ     RSS   %MEM   kB_rd/s   kB_wr/s kB_ccwr/s iodelay  Command
07:23:09 PM  1006    217532   96.00    3.00    0.00    0.00   99.00    51   2753.00      0.00  662784  587988   0.22   8449.00      0.00      0.00       0  perf_experiment

# Time        UID       PID    %usr %system  %guest   %wait    %CPU   CPU  minflt/s  majflt/s     VSZ     RSS   %MEM   kB_rd/s   kB_wr/s kB_ccwr/s iodelay  Command
07:23:10 PM  1006    217532   97.00    4.00    0.00    0.00  101.00    51   2488.00      0.00  663036  588176   0.22   8440.50      0.00      0.00       0  perf_experiment

# Time        UID       PID    %usr %system  %guest   %wait    %CPU   CPU  minflt/s  majflt/s     VSZ     RSS   %MEM   kB_rd/s   kB_wr/s kB_ccwr/s iodelay  Command
07:23:11 PM  1006    217532   97.00    3.00    0.00    0.00  100.00    51   2304.00      0.00  663036  588312   0.22   8427.50      0.00      0.00       0  perf_experiment

# Time        UID       PID    %usr %system  %guest   %wait    %CPU   CPU  minflt/s  majflt/s     VSZ     RSS   %MEM   kB_rd/s   kB_wr/s kB_ccwr/s iodelay  Command
07:23:12 PM  1006    217532   98.00    2.00    0.00    0.00  100.00    51   2844.00      0.00  663304  588508   0.22   8408.50      0.00      0.00       0  perf_experiment

# Time        UID       PID    %usr %system  %guest   %wait    %CPU   CPU  minflt/s  majflt/s     VSZ     RSS   %MEM   kB_rd/s   kB_wr/s kB_ccwr/s iodelay  Command
07:23:13 PM  1006    217532   98.00    1.00    0.00    0.00   99.00    51   2918.00      0.00  663440  588660   0.22   8450.00      0.00      0.00       0  perf_experiment

# Time        UID       PID    %usr %system  %guest   %wait    %CPU   CPU  minflt/s  majflt/s     VSZ     RSS   %MEM   kB_rd/s   kB_wr/s kB_ccwr/s iodelay  Command
07:23:14 PM  1006    217532   98.00    3.00    0.00    0.00  101.00    51   2766.00      0.00  663696  588852   0.22   8455.00      0.00      0.00       0  perf_experiment

# Time        UID       PID    %usr %system  %guest   %wait    %CPU   CPU  minflt/s  majflt/s     VSZ     RSS   %MEM   kB_rd/s   kB_wr/s kB_ccwr/s iodelay  Command
07:23:15 PM  1006    217532   98.00    2.00    0.00    0.00  100.00    51   2733.00      0.00  663828  589008   0.22   8403.00      0.00      0.00       0  perf_experiment

# Time        UID       PID    %usr %system  %guest   %wait    %CPU   CPU  minflt/s  majflt/s     VSZ     RSS   %MEM   kB_rd/s   kB_wr/s kB_ccwr/s iodelay  Command
07:23:16 PM  1006    217532   99.00    1.00    0.00    0.00  100.00    51   2499.00      0.00  663960  589200   0.22   8419.50      0.00      0.00       0  perf_experiment

# Time        UID       PID    %usr %system  %guest   %wait    %CPU   CPU  minflt/s  majflt/s     VSZ     RSS   %MEM   kB_rd/s   kB_wr/s kB_ccwr/s iodelay  Command
07:23:17 PM  1006    217532   96.00    3.00    0.00    0.00   99.00    51   2470.00      0.00  664076  589348   0.22   8428.00      0.00      0.00       0  perf_experiment

# Time        UID       PID    %usr %system  %guest   %wait    %CPU   CPU  minflt/s  majflt/s     VSZ     RSS   %MEM   kB_rd/s   kB_wr/s kB_ccwr/s iodelay  Command
07:23:18 PM  1006    217532   98.00    3.00    0.00    0.00  101.00    51   2382.00      0.00  664348  589536   0.22   8461.00      0.00      0.00       0  perf_experiment

# Time        UID       PID    %usr %system  %guest   %wait    %CPU   CPU  minflt/s  majflt/s     VSZ     RSS   %MEM   kB_rd/s   kB_wr/s kB_ccwr/s iodelay  Command
07:23:19 PM  1006    217532   96.00    3.00    0.00    0.00   99.00    51   2198.00      0.00  664484  589704   0.22   8472.50      0.00      0.00       0  perf_experiment

# Time        UID       PID    %usr %system  %guest   %wait    %CPU   CPU  minflt/s  majflt/s     VSZ     RSS   %MEM   kB_rd/s   kB_wr/s kB_ccwr/s iodelay  Command
07:23:20 PM  1006    217532   99.00    2.00    0.00    0.00  101.00    51   2141.00      0.00  664612  589868   0.22   8444.00      0.00      0.00       0  perf_experiment

# Time        UID       PID    %usr %system  %guest   %wait    %CPU   CPU  minflt/s  majflt/s     VSZ     RSS   %MEM   kB_rd/s   kB_wr/s kB_ccwr/s iodelay  Command
07:23:21 PM  1006    217532   93.00    6.00    0.00    0.00   99.00    51   5759.00      0.00  664744  590020   0.22   8368.50      0.00      0.00       0  perf_experiment

# Time        UID       PID    %usr %system  %guest   %wait    %CPU   CPU  minflt/s  majflt/s     VSZ     RSS   %MEM   kB_rd/s   kB_wr/s kB_ccwr/s iodelay  Command
07:23:22 PM  1006    217532   98.00    2.00    0.00    0.00  100.00    51   8954.00      0.00  665016  590196   0.22   8402.50      0.00      0.00       0  perf_experiment

# Time        UID       PID    %usr %system  %guest   %wait    %CPU   CPU  minflt/s  majflt/s     VSZ     RSS   %MEM   kB_rd/s   kB_wr/s kB_ccwr/s iodelay  Command
07:23:23 PM  1006    217532   98.00    2.00    0.00    0.00  100.00    51   2521.00      0.00  665144  590372   0.22   8430.50      0.00      0.00       0  perf_experiment

# Time        UID       PID    %usr %system  %guest   %wait    %CPU   CPU  minflt/s  majflt/s     VSZ     RSS   %MEM   kB_rd/s   kB_wr/s kB_ccwr/s iodelay  Command
07:23:24 PM  1006    217532   96.00    4.00    0.00    0.00  100.00    51   2260.00      0.00  665280  590532   0.22   8437.00      0.00      0.00       0  perf_experiment

# Time        UID       PID    %usr %system  %guest   %wait    %CPU   CPU  minflt/s  majflt/s     VSZ     RSS   %MEM   kB_rd/s   kB_wr/s kB_ccwr/s iodelay  Command
07:23:25 PM  1006    217532   97.00    4.00    0.00    0.00  101.00    51   2164.00      0.00  665536  590748   0.22   8446.50      0.00      0.00       0  perf_experiment

# Time        UID       PID    %usr %system  %guest   %wait    %CPU   CPU  minflt/s  majflt/s     VSZ     RSS   %MEM   kB_rd/s   kB_wr/s kB_ccwr/s iodelay  Command
07:23:26 PM  1006    217532   97.00    2.00    0.00    0.00   99.00    51   2098.00      0.00  665664  590892   0.22   8421.50      0.00      0.00       0  perf_experiment

# Time        UID       PID    %usr %system  %guest   %wait    %CPU   CPU  minflt/s  majflt/s     VSZ     RSS   %MEM   kB_rd/s   kB_wr/s kB_ccwr/s iodelay  Command
07:23:27 PM  1006    217532   96.00    4.00    0.00    0.00  100.00    51   2640.00      0.00  665796  591064   0.22   8364.00      0.00      0.00       0  perf_experiment

# Time        UID       PID    %usr %system  %guest   %wait    %CPU   CPU  minflt/s  majflt/s     VSZ     RSS   %MEM   kB_rd/s   kB_wr/s kB_ccwr/s iodelay  Command
07:23:28 PM  1006    217532   98.00    2.00    0.00    0.00  100.00    51   2925.00      0.00  666064  591236   0.22   8440.00      0.00      0.00       0  perf_experiment

# Time        UID       PID    %usr %system  %guest   %wait    %CPU   CPU  minflt/s  majflt/s     VSZ     RSS   %MEM   kB_rd/s   kB_wr/s kB_ccwr/s iodelay  Command
07:23:29 PM  1006    217532   98.00    3.00    0.00    0.00  101.00    51   2923.00      0.00  666200  591420   0.22   8409.00      0.00      0.00       0  perf_experiment

# Time        UID       PID    %usr %system  %guest   %wait    %CPU   CPU  minflt/s  majflt/s     VSZ     RSS   %MEM   kB_rd/s   kB_wr/s kB_ccwr/s iodelay  Command
07:23:30 PM  1006    217532   98.00    1.00    0.00    0.00   99.00    51   2537.00      0.00  666336  591568   0.22   8437.00      0.00      0.00       0  perf_experiment

# Time        UID       PID    %usr %system  %guest   %wait    %CPU   CPU  minflt/s  majflt/s     VSZ     RSS   %MEM   kB_rd/s   kB_wr/s kB_ccwr/s iodelay  Command
07:23:31 PM  1006    217532   97.00    3.00    0.00    0.00  100.00    51   2569.00      0.00  666468  591728   0.22   8416.00      0.00      0.00       0  perf_experiment

# Time        UID       PID    %usr %system  %guest   %wait    %CPU   CPU  minflt/s  majflt/s     VSZ     RSS   %MEM   kB_rd/s   kB_wr/s kB_ccwr/s iodelay  Command
07:23:32 PM  1006    217532   99.00    1.00    0.00    0.00  100.00    51   2511.00      0.00  666736  591932   0.22   8440.50      0.00      0.00       0  perf_experiment

# Time        UID       PID    %usr %system  %guest   %wait    %CPU   CPU  minflt/s  majflt/s     VSZ     RSS   %MEM   kB_rd/s   kB_wr/s kB_ccwr/s iodelay  Command
07:23:33 PM  1006    217532   98.00    3.00    0.00    0.00  101.00    51   2404.00      0.00  666868  592104   0.22   8439.00      0.00      0.00       0  perf_experiment

# Time        UID       PID    %usr %system  %guest   %wait    %CPU   CPU  minflt/s  majflt/s     VSZ     RSS   %MEM   kB_rd/s   kB_wr/s kB_ccwr/s iodelay  Command
07:23:34 PM  1006    217532   96.00    3.00    0.00    0.00   99.00    51   2192.00      0.00  667004  592248   0.22   8446.00      0.00      0.00       0  perf_experiment

# Time        UID       PID    %usr %system  %guest   %wait    %CPU   CPU  minflt/s  majflt/s     VSZ     RSS   %MEM   kB_rd/s   kB_wr/s kB_ccwr/s iodelay  Command
07:23:35 PM  1006    217532   97.00    3.00    0.00    0.00  100.00    51   2058.00      0.00  667256  592428   0.22   8435.50      0.00      0.00       0  perf_experiment

# Time        UID       PID    %usr %system  %guest   %wait    %CPU   CPU  minflt/s  majflt/s     VSZ     RSS   %MEM   kB_rd/s   kB_wr/s kB_ccwr/s iodelay  Command
07:23:36 PM  1006    217532   97.00    3.00    0.00    0.00  100.00    51   2077.00      0.00  667384  592600   0.22   8414.00      0.00      0.00       0  perf_experiment

# Time        UID       PID    %usr %system  %guest   %wait    %CPU   CPU  minflt/s  majflt/s     VSZ     RSS   %MEM   kB_rd/s   kB_wr/s kB_ccwr/s iodelay  Command
07:23:37 PM  1006    217532   97.00    4.00    0.00    0.00  101.00    51   2045.00      0.00  667516  592784   0.22   8441.50      0.00      0.00       0  perf_experiment

# Time        UID       PID    %usr %system  %guest   %wait    %CPU   CPU  minflt/s  majflt/s     VSZ     RSS   %MEM   kB_rd/s   kB_wr/s kB_ccwr/s iodelay  Command
07:23:38 PM  1006    217532   98.00    2.00    0.00    0.00  100.00    51   1846.00      0.00  667776  592996   0.22   8447.50      0.00      0.00       0  perf_experiment

# Time        UID       PID    %usr %system  %guest   %wait    %CPU   CPU  minflt/s  majflt/s     VSZ     RSS   %MEM   kB_rd/s   kB_wr/s kB_ccwr/s iodelay  Command
07:23:39 PM  1006    217532   97.00    3.00    0.00    0.00  100.00    51   3105.00      0.00  667912  593144   0.22   8408.00      0.00      0.00       0  perf_experiment

# Time        UID       PID    %usr %system  %guest   %wait    %CPU   CPU  minflt/s  majflt/s     VSZ     RSS   %MEM   kB_rd/s   kB_wr/s kB_ccwr/s iodelay  Command
07:23:40 PM  1006    217532   98.00    1.00    0.00    0.00   99.00    51  11120.00      0.00  668036  593288   0.22   8384.00      0.00      0.00       0  perf_experiment

# Time        UID       PID    %usr %system  %guest   %wait    %CPU   CPU  minflt/s  majflt/s     VSZ     RSS   %MEM   kB_rd/s   kB_wr/s kB_ccwr/s iodelay  Command
07:23:41 PM  1006    217532  100.00    1.00    0.00    0.00  101.00    51   2395.00      0.00  668300  593432   0.22   8408.50      0.00      0.00       0  perf_experiment

# Time        UID       PID    %usr %system  %guest   %wait    %CPU   CPU  minflt/s  majflt/s     VSZ     RSS   %MEM   kB_rd/s   kB_wr/s kB_ccwr/s iodelay  Command
07:23:42 PM  1006    217532   96.00    4.00    0.00    0.00  100.00    51   2169.00      0.00  668420  593652   0.23   8435.50      0.00      0.00       0  perf_experiment

# Time        UID       PID    %usr %system  %guest   %wait    %CPU   CPU  minflt/s  majflt/s     VSZ     RSS   %MEM   kB_rd/s   kB_wr/s kB_ccwr/s iodelay  Command
07:23:43 PM  1006    217532   97.00    3.00    0.00    0.00  100.00    51   2035.00      0.00  668552  593796   0.23   8425.00      0.00      0.00       0  perf_experiment

# Time        UID       PID    %usr %system  %guest   %wait    %CPU   CPU  minflt/s  majflt/s     VSZ     RSS   %MEM   kB_rd/s   kB_wr/s kB_ccwr/s iodelay  Command
07:23:44 PM  1006    217532   96.00    3.00    0.00    0.00   99.00    51   1980.00      0.00  668800  593996   0.23   8423.00      0.00      0.00       0  perf_experiment

# Time        UID       PID    %usr %system  %guest   %wait    %CPU   CPU  minflt/s  majflt/s     VSZ     RSS   %MEM   kB_rd/s   kB_wr/s kB_ccwr/s iodelay  Command
07:23:45 PM  1006    217532   98.00    3.00    0.00    0.00  101.00    51   1929.00      0.00  668932  594168   0.23   8450.00      0.00      0.00       0  perf_experiment

# Time        UID       PID    %usr %system  %guest   %wait    %CPU   CPU  minflt/s  majflt/s     VSZ     RSS   %MEM   kB_rd/s   kB_wr/s kB_ccwr/s iodelay  Command
07:23:46 PM  1006    217532   96.00    4.00    0.00    0.00  100.00    51   1817.00      0.00  669060  594296   0.23   8454.50      0.00      0.00       0  perf_experiment

# Time        UID       PID    %usr %system  %guest   %wait    %CPU   CPU  minflt/s  majflt/s     VSZ     RSS   %MEM   kB_rd/s   kB_wr/s kB_ccwr/s iodelay  Command
07:23:47 PM  1006    217532   97.00    2.00    0.00    0.00   99.00    51   2912.00      0.00  669332  594496   0.23   8412.00      0.00      0.00       0  perf_experiment

# Time        UID       PID    %usr %system  %guest   %wait    %CPU   CPU  minflt/s  majflt/s     VSZ     RSS   %MEM   kB_rd/s   kB_wr/s kB_ccwr/s iodelay  Command
07:23:48 PM  1006    217532   98.00    2.00    0.00    0.00  100.00    51   2807.00      0.00  669468  594688   0.23   8426.50      0.00      0.00       0  perf_experiment

# Time        UID       PID    %usr %system  %guest   %wait    %CPU   CPU  minflt/s  majflt/s     VSZ     RSS   %MEM   kB_rd/s   kB_wr/s kB_ccwr/s iodelay  Command
07:23:49 PM  1006    217532   95.00    5.00    0.00    0.00  100.00    51   2695.00      0.00  669604  594840   0.23   8432.00      0.00      0.00       0  perf_experiment

# Time        UID       PID    %usr %system  %guest   %wait    %CPU   CPU  minflt/s  majflt/s     VSZ     RSS   %MEM   kB_rd/s   kB_wr/s kB_ccwr/s iodelay  Command
07:23:50 PM  1006    217532   98.00    3.00    0.00    0.00  101.00    51   2514.00      0.00  669736  594996   0.23   8438.00      0.00      0.00       0  perf_experiment

# Time        UID       PID    %usr %system  %guest   %wait    %CPU   CPU  minflt/s  majflt/s     VSZ     RSS   %MEM   kB_rd/s   kB_wr/s kB_ccwr/s iodelay  Command
07:23:51 PM  1006    217532   98.00    2.00    0.00    0.00  100.00    51   2410.00      0.00  670000  595172   0.23   8458.50      0.00      0.00       0  perf_experiment

# Time        UID       PID    %usr %system  %guest   %wait    %CPU   CPU  minflt/s  majflt/s     VSZ     RSS   %MEM   kB_rd/s   kB_wr/s kB_ccwr/s iodelay  Command
07:23:52 PM  1006    217532   97.00    2.00    0.00    0.00   99.00    51   2423.00      0.00  670136  595360   0.23   8393.00      0.00      0.00       0  perf_experiment

# Time        UID       PID    %usr %system  %guest   %wait    %CPU   CPU  minflt/s  majflt/s     VSZ     RSS   %MEM   kB_rd/s   kB_wr/s kB_ccwr/s iodelay  Command
07:23:53 PM  1006    217532   97.00    3.00    0.00    0.00  100.00    51   2201.00      0.00  670272  595524   0.23   8428.00      0.00      0.00       0  perf_experiment

# Time        UID       PID    %usr %system  %guest   %wait    %CPU   CPU  minflt/s  majflt/s     VSZ     RSS   %MEM   kB_rd/s   kB_wr/s kB_ccwr/s iodelay  Command
07:23:54 PM  1006    217532   98.00    3.00    0.00    0.00  101.00    51   2276.00      0.00  670536  595700   0.23   8447.00      0.00      0.00       0  perf_experiment

# Time        UID       PID    %usr %system  %guest   %wait    %CPU   CPU  minflt/s  majflt/s     VSZ     RSS   %MEM   kB_rd/s   kB_wr/s kB_ccwr/s iodelay  Command
07:23:55 PM  1006    217532   96.00    4.00    0.00    0.00  100.00    51   2074.00      0.00  670672  595844   0.23   8445.50      0.00      0.00       0  perf_experiment

# Time        UID       PID    %usr %system  %guest   %wait    %CPU   CPU  minflt/s  majflt/s     VSZ     RSS   %MEM   kB_rd/s   kB_wr/s kB_ccwr/s iodelay  Command
07:23:56 PM  1006    217532   99.00    1.00    0.00    0.00  100.00    51   2015.00      0.00  670804  596040   0.23   8431.50      0.00      0.00       0  perf_experiment

# Time        UID       PID    %usr %system  %guest   %wait    %CPU   CPU  minflt/s  majflt/s     VSZ     RSS   %MEM   kB_rd/s   kB_wr/s kB_ccwr/s iodelay  Command
07:23:57 PM  1006    217532   97.00    3.00    0.00    0.00  100.00    51   1849.00      0.00  670940  596216   0.23   8479.00      0.00      0.00       0  perf_experiment

# Time        UID       PID    %usr %system  %guest   %wait    %CPU   CPU  minflt/s  majflt/s     VSZ     RSS   %MEM   kB_rd/s   kB_wr/s kB_ccwr/s iodelay  Command
07:23:58 PM  1006    217532   97.00    2.00    0.00    0.00   99.00    51   1858.00      0.00  671208  596388   0.23   8445.00      0.00      0.00       0  perf_experiment

# Time        UID       PID    %usr %system  %guest   %wait    %CPU   CPU  minflt/s  majflt/s     VSZ     RSS   %MEM   kB_rd/s   kB_wr/s kB_ccwr/s iodelay  Command
07:23:59 PM  1006    217532   97.00    3.00    0.00    0.00  100.00    51   1741.00      0.00  671340  596568   0.23   8484.00      0.00      0.00       0  perf_experiment

# Time        UID       PID    %usr %system  %guest   %wait    %CPU   CPU  minflt/s  majflt/s     VSZ     RSS   %MEM   kB_rd/s   kB_wr/s kB_ccwr/s iodelay  Command
07:24:00 PM  1006    217532   96.00    4.00    0.00    0.00  100.00    51   1684.00      0.00  671472  596696   0.23   8437.50      0.00      0.00       0  perf_experiment

# Time        UID       PID    %usr %system  %guest   %wait    %CPU   CPU  minflt/s  majflt/s     VSZ     RSS   %MEM   kB_rd/s   kB_wr/s kB_ccwr/s iodelay  Command
07:24:01 PM  1006    217532   98.00    3.00    0.00    0.00  101.00    51   1618.00      0.00  671732  596896   0.23   8466.00      0.00      0.00       0  perf_experiment

# Time        UID       PID    %usr %system  %guest   %wait    %CPU   CPU  minflt/s  majflt/s     VSZ     RSS   %MEM   kB_rd/s   kB_wr/s kB_ccwr/s iodelay  Command