4,Faster,1,5000000,2500000,32,128,62231,5000000


resource usage stats

Linux 5.4.0-42-generic (arcon1) 	10/25/2020 	_x86_64_	(64 CPU)

# Time        UID       PID    %usr %system  %guest   %wait    %CPU   CPU  minflt/s  majflt/s     VSZ     RSS   %MEM   kB_rd/s   kB_wr/s kB_ccwr/s iodelay  Command
04:46:42 AM  1006    220066   61.00   38.00    0.00    0.00   99.00    38 146079.00      0.00  664776  589888   0.22      0.00      4.00      0.00       0  perf_experiment

# Time        UID       PID    %usr %system  %guest   %wait    %CPU   CPU  minflt/s  majflt/s     VSZ     RSS   %MEM   kB_rd/s   kB_wr/s kB_ccwr/s iodelay  Command
04:46:43 AM  1006    220066   81.00   19.00    0.00    0.00  100.00    38   7713.00      0.00  674148  599228   0.23      0.00      0.00      0.00       0  perf_experiment

# Time        UID       PID    %usr %system  %guest   %wait    %CPU   CPU  minflt/s  majflt/s     VSZ     RSS   %MEM   kB_rd/s   kB_wr/s kB_ccwr/s iodelay  Command
04:46:44 AM  1006    220066   79.00   21.00    0.00    0.00  100.00     6  17000.00      0.00  683256  608468   0.23      0.00      0.00      0.00       0  perf_experiment

# Time        UID       PID    %usr %system  %guest   %wait    %CPU   CPU  minflt/s  majflt/s     VSZ     RSS   %MEM   kB_rd/s   kB_wr/s kB_ccwr/s iodelay  Command
04:46:45 AM  1006    220066   78.00   22.00    0.00    0.00  100.00     6  17383.00      0.00  692496  617668   0.23      0.00      0.00      0.00       0  perf_experiment

# Time        UID       PID    %usr %system  %guest   %wait    %CPU   CPU  minflt/s  majflt/s     VSZ     RSS   %MEM   kB_rd/s   kB_wr/s kB_ccwr/s iodelay  Command
04:46:46 AM  1006    220066   75.00   25.00    0.00    0.00  100.00     6  15642.00      0.00  701604  626800   0.24      0.00      0.00      0.00       0  perf_experiment

# Time        UID       PID    %usr %system  %guest   %wait    %CPU   CPU  minflt/s  majflt/s     VSZ     RSS   %MEM   kB_rd/s   kB_wr/s kB_ccwr/s iodelay  Command
04:46:47 AM  1006    220066   80.00   20.00    0.00    0.00  100.00     6  18083.00      0.00  710712  635848   0.24      0.00      0.00      0.00       0  perf_experiment

# Time        UID       PID    %usr %system  %guest   %wait    %CPU   CPU  minflt/s  majflt/s     VSZ     RSS   %MEM   kB_rd/s   kB_wr/s kB_ccwr/s iodelay  Command
04:46:48 AM  1006    220066   74.00   24.00    0.00    0.00   98.00     6  23062.00      0.00  719424  644552   0.24      0.00  32768.00      0.00       2  perf_experiment

# Time        UID       PID    %usr %system  %guest   %wait    %CPU   CPU  minflt/s  majflt/s     VSZ     RSS   %MEM   kB_rd/s   kB_wr/s kB_ccwr/s iodelay  Command
04:46:49 AM  1006    220066   68.00   28.00    0.00    0.00   96.00     6  29279.00      0.00  727608  652740   0.25      0.00  65536.00      0.00       4  perf_experiment

# Time        UID       PID    %usr %system  %guest   %wait    %CPU   CPU  minflt/s  majflt/s     VSZ     RSS   %MEM   kB_rd/s   kB_wr/s kB_ccwr/s iodelay  Command
04:46:50 AM  1006    220066   67.00   30.00    0.00    0.00   97.00     6  12705.00      0.00  736056  661240   0.25      0.00  32768.00      0.00       3  perf_experiment

# Time        UID       PID    %usr %system  %guest   %wait    %CPU   CPU  minflt/s  majflt/s     VSZ     RSS   %MEM   kB_rd/s   kB_wr/s kB_ccwr/s iodelay  Command
04:46:51 AM  1006    220066   72.00   26.00    0.00    0.00   98.00     6  22660.00      0.00  744504  669660   0.25      0.00  32768.00      0.00       2  perf_experiment

# Time        UID       PID    %usr %system  %guest   %wait    %CPU   CPU  minflt/s  majflt/s     VSZ     RSS   %MEM   kB_rd/s   kB_wr/s kB_ccwr/s iodelay  Command
04:46:52 AM  1006    220066   69.00   25.00    0.00    0.00   94.00     6  18868.00      0.00  752556  677552   0.26      0.00  65536.00      0.00       5  perf_experiment

# Time        UID       PID    %usr %system  %guest   %wait    %CPU   CPU  minflt/s  majflt/s     VSZ     RSS   %MEM   kB_rd/s   kB_wr/s kB_ccwr/s iodelay  Command
04:46:53 AM  1006    220066   75.00   23.00    0.00    0.00   98.00     6  15484.00      0.00  760872  685960   0.26      0.00  32768.00      0.00       2  perf_experiment

# Time        UID       PID    %usr %system  %guest   %wait    %CPU   CPU  minflt/s  majflt/s     VSZ     RSS   %MEM   kB_rd/s   kB_wr/s kB_ccwr/s iodelay  Command
04:46:54 AM  1006    220066   80.00   15.00    0.00    0.00   95.00     6  24350.00      0.00  768660  693860   0.26      0.00  65536.00      0.00       5  perf_experiment

# Time        UID       PID    %usr %system  %guest   %wait    %CPU   CPU  minflt/s  majflt/s     VSZ     RSS   %MEM   kB_rd/s   kB_wr/s kB_ccwr/s iodelay  Command
04:46:55 AM  1006    220066   79.00   18.00    0.00    0.00   97.00     6  16982.00      0.00  775132  700276   0.27   1815.00  32768.00      0.00       3  perf_experiment

# Time        UID       PID    %usr %system  %guest   %wait    %CPU   CPU  minflt/s  majflt/s     VSZ     RSS   %MEM   kB_rd/s   kB_wr/s kB_ccwr/s iodelay  Command
04:46:56 AM  1006    220066   99.00    2.00    0.00    0.00  101.00     6     86.00      0.00  775524  700536   0.27   7694.50      0.00      0.00       0  perf_experiment

# Time        UID       PID    %usr %system  %guest   %wait    %CPU   CPU  minflt/s  majflt/s     VSZ     RSS   %MEM   kB_rd/s   kB_wr/s kB_ccwr/s iodelay  Command
04:46:57 AM  1006    220066   98.00    1.00    0.00    0.00   99.00     6    654.00      0.00  775920  701024   0.27   8101.50      0.00      0.00       0  perf_experiment

# Time        UID       PID    %usr %system  %guest   %wait    %CPU   CPU  minflt/s  majflt/s     VSZ     RSS   %MEM   kB_rd/s   kB_wr/s kB_ccwr/s iodelay  Command
04:46:58 AM  1006    220066   97.00    4.00    0.00    0.00  101.00     6    285.00      0.00  776300  701504   0.27   8409.50      0.00      0.00       0  perf_experiment

# Time        UID       PID    %usr %system  %guest   %wait    %CPU   CPU  minflt/s  majflt/s     VSZ     RSS   %MEM   kB_rd/s   kB_wr/s kB_ccwr/s iodelay  Command
04:46:59 AM  1006    220066   97.00    3.00    0.00    0.00  100.00     6    668.00      0.00  776696  701920   0.27   8396.50      0.00      0.00       0  perf_experiment

# Time        UID       PID    %usr %system  %guest   %wait    %CPU   CPU  minflt/s  majflt/s     VSZ     RSS   %MEM   kB_rd/s   kB_wr/s kB_ccwr/s iodelay  Command
04:47:00 AM  1006    220066   97.00    3.00    0.00    0.00  100.00     6    651.00      0.00  777076  702288   0.27   7650.50      0.00      0.00       0  perf_experiment

# Time        UID       PID    %usr %system  %guest   %wait    %CPU   CPU  minflt/s  majflt/s     VSZ     RSS   %MEM   kB_rd/s   kB_wr/s kB_ccwr/s iodelay  Command
04:47:01 AM  1006    220066   97.00    2.00    0.00    0.00   99.00     6    672.00      0.00  777472  702696   0.27   8455.50      0.00      0.00       0  perf_experiment

# Time        UID       PID    %usr %system  %guest   %wait    %CPU   CPU  minflt/s  majflt/s     VSZ     RSS   %MEM   kB_rd/s   kB_wr/s kB_ccwr/s iodelay  Command
04:47:02 AM  1006    220066   98.00    2.00    0.00    0.00  100.00     6   1220.00      0.00  777852  703104   0.27   8340.50      0.00      0.00       0  perf_experiment

# Time        UID       PID    %usr %system  %guest   %wait    %CPU   CPU  minflt/s  majflt/s     VSZ     RSS   %MEM   kB_rd/s   kB_wr/s kB_ccwr/s iodelay  Command
04:47:03 AM  1006    220066   99.00    2.00    0.00    0.00  101.00     6    635.00      0.00  778248  703472   0.27   7853.50      0.00      0.00       0  perf_experiment

# Time        UID       PID    %usr %system  %guest   %wait    %CPU   CPU  minflt/s  majflt/s     VSZ     RSS   %MEM   kB_rd/s   kB_wr/s kB_ccwr/s iodelay  Command
04:47:04 AM  1006    220066   97.00    3.00    0.00    0.00  100.00     6    694.00      0.00  778756  703904   0.27   8596.00      0.00      0.00       0  perf_experiment

# Time        UID       PID    %usr %system  %guest   %wait    %CPU   CPU  minflt/s  majflt/s     VSZ     RSS   %MEM   kB_rd/s   kB_wr/s kB_ccwr/s iodelay  Command
04:47:05 AM  1006    220066   97.00    3.00    0.00    0.00  100.00     6    645.00      0.00  779144  704296   0.27   7967.00      0.00      0.00       0  perf_experiment

# Time        UID       PID    %usr %system  %guest   %wait    %CPU   CPU  minflt/s  majflt/s     VSZ     RSS   %MEM   kB_rd/s   kB_wr/s kB_ccwr/s iodelay  Command
04:47:06 AM  1006    220066   93.00    5.00    0.00    0.00   98.00     6   8865.00      0.00  779512  704700   0.27   7916.50  32768.00      0.00       2  perf_experiment

# Time        UID       PID    %usr %system  %guest   %wait    %CPU   CPU  minflt/s  majflt/s     VSZ     RSS   %MEM   kB_rd/s   kB_wr/s kB_ccwr/s iodelay  Command
04:47:07 AM  1006    220066   97.00    3.00    0.00    0.00  100.00     6    658.00      0.00  779908  705040   0.27   8223.00      0.00      0.00       0  perf_experiment

# Time        UID       PID    %usr %system  %guest   %wait    %CPU   CPU  minflt/s  majflt/s     VSZ     RSS   %MEM   kB_rd/s   kB_wr/s kB_ccwr/s iodelay  Command
04:47:08 AM  1006    220066   96.00    4.00    0.00    0.00  100.00     6    657.00      0.00  780288  705484   0.27   8069.00      0.00      0.00       0  perf_experiment

# Time        UID       PID    %usr %system  %guest   %wait    %CPU   CPU  minflt/s  majflt/s     VSZ     RSS   %MEM   kB_rd/s   kB_wr/s kB_ccwr/s iodelay  Command
04:47:09 AM  1006    220066   95.00    4.00    0.00    0.00   99.00     6   1210.00      0.00  780684  705832   0.27   8325.50      0.00      0.00       0  perf_experiment

# Time        UID       PID    %usr %system  %guest   %wait    %CPU   CPU  minflt/s  majflt/s     VSZ     RSS   %MEM   kB_rd/s   kB_wr/s kB_ccwr/s iodelay  Command
04:47:10 AM  1006    220066   97.00    3.00    0.00    0.00  100.00     6    649.00      0.00  781064  706260   0.27   7926.50      0.00      0.00       0  perf_experiment

# Time        UID       PID    %usr %system  %guest   %wait    %CPU   CPU  minflt/s  majflt/s     VSZ     RSS   %MEM   kB_rd/s   kB_wr/s kB_ccwr/s iodelay  Command
04:47:11 AM  1006    220066   96.00    5.00    0.00    0.00  101.00     6    678.00      0.00  781460  706640   0.27   8381.50      0.00      0.00       0  perf_experiment

# Time        UID       PID    %usr %system  %guest   %wait    %CPU   CPU  minflt/s  majflt/s     VSZ     RSS   %MEM   kB_rd/s   kB_wr/s kB_ccwr/s iodelay  Command
04:47:12 AM  1006    220066   97.00    3.00    0.00    0.00  100.00     6    659.00      0.00  781840  707060   0.27   8191.00      0.00      0.00       0  perf_experiment

# Time        UID       PID    %usr %system  %guest   %wait    %CPU   CPU  minflt/s  majflt/s     VSZ     RSS   %MEM   kB_rd/s   kB_wr/s kB_ccwr/s iodelay  Command
04:47:13 AM  1006    220066   97.00    3.00    0.00    0.00  100.00     6    698.00      0.00  782236  707464   0.27   8553.50      0.00      0.00       0  perf_experiment

# Time        UID       PID    %usr %system  %guest   %wait    %CPU   CPU  minflt/s  majflt/s     VSZ     RSS   %MEM   kB_rd/s   kB_wr/s kB_ccwr/s iodelay  Command
04:47:14 AM  1006    220066   97.00    3.00    0.00    0.00  100.00     6    737.00      0.00  782616  707836   0.27   7933.00      0.00      0.00       0  perf_experiment

# Time        UID       PID    %usr %system  %guest   %wait    %CPU   CPU  minflt/s  majflt/s     VSZ     RSS   %MEM   kB_rd/s   kB_wr/s kB_ccwr/s iodelay  Command
04:47:15 AM  1006    220066   99.00    1.00    0.00    0.00  100.00     6    753.00      0.00  783012  708256   0.27   8396.50      0.00      0.00       0  perf_experiment

# Time        UID       PID    %usr %system  %guest   %wait    %CPU   CPU  minflt/s  majflt/s     VSZ     RSS   %MEM   kB_rd/s   kB_wr/s kB_ccwr/s iodelay  Command
04:47:16 AM  1006    220066   96.00    4.00    0.00    0.00  100.00     6    743.00      0.00  783528  708676   0.27   8451.00      0.00      0.00       0  perf_experiment

# Time        UID       PID    %usr %system  %guest   %wait    %CPU   CPU  minflt/s  majflt/s     VSZ     RSS   %MEM   kB_rd/s   kB_wr/s kB_ccwr/s iodelay  Command
04:47:17 AM  1006    220066   96.00    3.00    0.00    0.00   99.00     6    683.00      0.00  783924  709072   0.27   8150.00      0.00      0.00       0  perf_experiment

# Time        UID       PID    %usr %system  %guest   %wait    %CPU   CPU  minflt/s  majflt/s     VSZ     RSS   %MEM   kB_rd/s   kB_wr/s kB_ccwr/s iodelay  Command
04:47:18 AM  1006    220066   98.00    3.00    0.00    0.00  101.00     6   1322.00      0.00  784304  709504   0.27   8726.00      0.00      0.00       0  perf_experiment

# Time        UID       PID    %usr %system  %guest   %wait    %CPU   CPU  minflt/s  majflt/s     VSZ     RSS   %MEM   kB_rd/s   kB_wr/s kB_ccwr/s iodelay  Command
04:47:19 AM  1006    220066   96.00    3.00    0.00    0.00   99.00     6    728.00      0.00  784700  709924   0.27   8177.50      0.00      0.00       0  perf_experiment

# Time        UID       PID    %usr %system  %guest   %wait    %CPU   CPU  minflt/s  majflt/s     VSZ     RSS   %MEM   kB_rd/s   kB_wr/s kB_ccwr/s iodelay  Command
04:47:20 AM  1006    220066   96.00    4.00    0.00    0.00  100.00     6   1034.00      0.00  785080  710332   0.27   8556.50   1279.50      0.00       0  perf_experiment

# Time        UID       PID    %usr %system  %guest   %wait    %CPU   CPU  minflt/s  majflt/s     VSZ     RSS   %MEM   kB_rd/s   kB_wr/s kB_ccwr/s iodelay  Command
04:47:21 AM  1006    220066   95.00    3.00    0.00    0.00   98.00     6   8691.00      0.00  785476  710700   0.27   8463.50  31488.50      0.00       2  perf_experiment

# Time        UID       PID    %usr %system  %guest   %wait    %CPU   CPU  minflt/s  majflt/s     VSZ     RSS   %MEM   kB_rd/s   kB_wr/s kB_ccwr/s iodelay  Command
04:47:22 AM  1006    220066   96.00    4.00    0.00    0.00  100.00     6    641.00      0.00  785964  711112   0.27   7893.00      0.00      0.00       0  perf_experiment

# Time        UID       PID    %usr %system  %guest   %wait    %CPU   CPU  minflt/s  majflt/s     VSZ     RSS   %MEM   kB_rd/s   kB_wr/s kB_ccwr/s iodelay  Command
04:47:23 AM  1006    220066   95.00    5.00    0.00    0.00  100.00     6    680.00      0.00  786360  711492   0.27   8392.00      0.00      0.00       0  perf_experiment

# Time        UID       PID    %usr %system  %guest   %wait    %CPU   CPU  minflt/s  majflt/s     VSZ     RSS   %MEM   kB_rd/s   kB_wr/s kB_ccwr/s iodelay  Command
04:47:24 AM  1006    220066   96.00    4.00    0.00    0.00  100.00     6    701.00      0.00  786740  711936   0.27   8585.00      0.00      0.00       0  perf_experiment

# Time        UID       PID    %usr %system  %guest   %wait    %CPU   CPU  minflt/s  majflt/s     VSZ     RSS   %MEM   kB_rd/s   kB_wr/s kB_ccwr/s iodelay  Command
04:47:25 AM  1006    220066   97.00    3.00    0.00    0.00  100.00     6    700.00      0.00  787136  712332   0.27   8267.50      0.00      0.00       0  perf_experiment

# Time        UID       PID    %usr %system  %guest   %wait    %CPU   CPU  minflt/s  majflt/s     VSZ     RSS   %MEM   kB_rd/s   kB_wr/s kB_ccwr/s iodelay  Command
04:47:26 AM  1006    220066   97.00    3.00    0.00    0.00  100.00     6    670.00      0.00  787516  712736   0.27   8230.50      0.00      0.00       0  perf_experiment

# Time        UID       PID    %usr %system  %guest   %wait    %CPU   CPU  minflt/s  majflt/s     VSZ     RSS   %MEM   kB_rd/s   kB_wr/s kB_ccwr/s iodelay  Command
04:47:27 AM  1006    220066   98.00    3.00    0.00    0.00  101.00     6    654.00      0.00  787912  713092   0.27   7993.50      0.00      0.00       0  perf_experiment

# Time        UID       PID    %usr %system  %guest   %wait    %CPU   CPU  minflt/s  majflt/s     VSZ     RSS   %MEM   kB_rd/s   kB_wr/s kB_ccwr/s iodelay  Command
04:47:28 AM  1006    220066   96.00    3.00    0.00    0.00   99.00     6    685.00      0.00  788292  713512   0.27   8508.50      0.00      0.00       0  perf_experiment

# Time        UID       PID    %usr %system  %guest   %wait    %CPU   CPU  minflt/s  majflt/s     VSZ     RSS   %MEM   kB_rd/s   kB_wr/s kB_ccwr/s iodelay  Command
04:47:29 AM  1006    220066   96.00    4.00    0.00    0.00  100.00     6    700.00      0.00  788688  713932   0.27   8572.50      0.00      0.00       0  perf_experiment

# Time        UID       PID    %usr %system  %guest   %wait    %CPU   CPU  minflt/s  majflt/s     VSZ     RSS   %MEM   kB_rd/s   kB_wr/s kB_ccwr/s iodelay  Command
04:47:30 AM  1006    220066   98.00    2.00    0.00    0.00  100.00     6    786.00      0.00  789068  714336   0.27   8026.00      0.00      0.00       0  perf_experiment

# Time        UID       PID    %usr %system  %guest   %wait    %CPU   CPU  minflt/s  majflt/s     VSZ     RSS   %MEM   kB_rd/s   kB_wr/s kB_ccwr/s iodelay  Command
04:47:31 AM  1006    220066   98.00    3.00    0.00    0.00  101.00     6    876.00      0.00  789600  714788   0.27   8779.00      0.00      0.00       0  perf_experiment

# Time        UID       PID    %usr %system  %guest   %wait    %CPU   CPU  minflt/s  majflt/s     VSZ     RSS   %MEM   kB_rd/s   kB_wr/s kB_ccwr/s iodelay  Command
04:47:32 AM  1006    220066   96.00    3.00    0.00    0.00   99.00     6    829.00      0.00  789980  715176   0.27   8378.00      0.00      0.00       0  perf_experiment

# Time        UID       PID    %usr %system  %guest   %wait    %CPU   CPU  minflt/s  majflt/s     VSZ     RSS   %MEM   kB_rd/s   kB_wr/s kB_ccwr/s iodelay  Command
04:47:33 AM  1006    220066   96.00    4.00    0.00    0.00  100.00     6    732.00      0.00  790376  715572   0.27   8345.50      0.00      0.00       0  perf_experiment

# Time        UID       PID    %usr %system  %guest   %wait    %CPU   CPU  minflt/s  majflt/s     VSZ     RSS   %MEM   kB_rd/s   kB_wr/s kB_ccwr/s iodelay  Command
04:47:34 AM  1006    220066   98.00    2.00    0.00    0.00  100.00     6    715.00      0.00  790756  716008   0.27   8310.00      0.00      0.00       0  perf_experiment

# Time        UID       PID    %usr %system  %guest   %wait    %CPU   CPU  minflt/s  majflt/s     VSZ     RSS   %MEM   kB_rd/s   kB_wr/s kB_ccwr/s iodelay  Command
04:47:35 AM  1006    220066   94.00    3.00    0.00    0.00   97.00     6   9379.00      0.00  791152  716360   0.27   7816.50  32768.00      0.00       3  perf_experiment

# Time        UID       PID    %usr %system  %guest   %wait    %CPU   CPU  minflt/s  majflt/s     VSZ     RSS   %MEM   kB_rd/s   kB_wr/s kB_ccwr/s iodelay  Command
04:47:36 AM  1006    220066   98.00    3.00    0.00    0.00  101.00     6    696.00      0.00  791532  716784   0.27   8146.00      0.00      0.00       0  perf_experiment

# Time        UID       PID    %usr %system  %guest   %wait    %CPU   CPU  minflt/s  majflt/s     VSZ     RSS   %MEM   kB_rd/s   kB_wr/s kB_ccwr/s iodelay  Command
04:47:37 AM  1006    220066   98.00    2.00    0.00    0.00  100.00     6    662.00      0.00  791928  717144   0.27   8126.00      0.00      0.00       0  perf_experiment

# Time        UID       PID    %usr %system  %guest   %wait    %CPU   CPU  minflt/s  majflt/s     VSZ     RSS   %MEM   kB_rd/s   kB_wr/s kB_ccwr/s iodelay  Command
04:47:38 AM  1006    220066   98.00    2.00    0.00    0.00  100.00     6    684.00      0.00  792416  717564   0.27   8266.00      0.00      0.00       0  perf_experiment

# Time        UID       PID    %usr %system  %guest   %wait    %CPU   CPU  minflt/s  majflt/s     VSZ     RSS   %MEM   kB_rd/s   kB_wr/s kB_ccwr/s iodelay  Command
04:47:39 AM  1006    220066   97.00    3.00    0.00    0.00  100.00     6    706.00      0.00  792680  717944   0.27   8414.50      0.00      0.00       0  perf_experiment

# Time        UID       PID    %usr %system  %guest   %wait    %CPU   CPU  minflt/s  majflt/s     VSZ     RSS   %MEM   kB_rd/s   kB_wr/s kB_ccwr/s iodelay  Command
04:47:40 AM  1006    220066   97.00    3.00    0.00    0.00  100.00     6    664.00      0.00  793192  718340   0.27   8029.50      0.00      0.00       0  perf_experiment

# Time        UID       PID    %usr %system  %guest   %wait    %CPU   CPU  minflt/s  majflt/s     VSZ     RSS   %MEM   kB_rd/s   kB_wr/s kB_ccwr/s iodelay  Command
04:47:41 AM  1006    220066   96.00    3.00    0.00    0.00   99.00     6    677.00      0.00  793588  718720   0.27   8367.50      0.00      0.00       0  perf_experiment

# Time        UID       PID    %usr %system  %guest   %wait    %CPU   CPU  minflt/s  majflt/s     VSZ     RSS   %MEM   kB_rd/s   kB_wr/s kB_ccwr/s iodelay  Command
04:47:42 AM  1006    220066   97.00    4.00    0.00    0.00  101.00     6    653.00      0.00  793968  719164   0.27   7950.50      0.00      0.00       0  perf_experiment

# Time        UID       PID    %usr %system  %guest   %wait    %CPU   CPU  minflt/s  majflt/s     VSZ     RSS   %MEM   kB_rd/s   kB_wr/s kB_ccwr/s iodelay  Command
04:47:43 AM  1006    220066   96.00    4.00    0.00    0.00  100.00     6    664.00      0.00  794364  719544   0.27   8235.50      0.00      0.00       0  perf_experiment

# Time        UID       PID    %usr %system  %guest   %wait    %CPU   CPU  minflt/s  majflt/s     VSZ     RSS   %MEM   kB_rd/s   kB_wr/s kB_ccwr/s iodelay  Command
04:47:44 AM  1006    220066   97.00    3.00    0.00    0.00  100.00     6    676.00      0.00  794744  719940   0.27   8232.00      0.00      0.00       0  perf_experiment

# Time        UID       PID    %usr %system  %guest   %wait    %CPU   CPU  minflt/s  majflt/s     VSZ     RSS   %MEM   kB_rd/s   kB_wr/s kB_ccwr/s iodelay  Command
04:47:45 AM  1006    220066   98.00    2.00    0.00    0.00  100.00     6    788.00      0.00  795140  720320   0.27   8137.00      0.00      0.00       0  perf_experiment

# Time        UID       PID    %usr %system  %guest   %wait    %CPU   CPU  minflt/s  majflt/s     VSZ     RSS   %MEM   kB_rd/s   kB_wr/s kB_ccwr/s iodelay  Command
04:47:46 AM  1006    220066   97.00    3.00    0.00    0.00  100.00     6    942.00      0.00  795520  720740   0.27   8372.00      0.00      0.00       0  perf_experiment

# Time        UID       PID    %usr %system  %guest   %wait    %CPU   CPU  minflt/s  majflt/s     VSZ     RSS   %MEM   kB_rd/s   kB_wr/s kB_ccwr/s iodelay  Command
04:47:47 AM  1006    220066   98.02    0.99    0.00    0.00   99.01     6    914.85      0.00  795916  721152   0.27   8034.65      0.00      0.00       0  perf_experiment

# Time        UID       PID    %usr %system  %guest   %wait    %CPU   CPU  minflt/s  majflt/s     VSZ     RSS   %MEM   kB_rd/s   kB_wr/s kB_ccwr/s iodelay  Command
04:47:48 AM  1006    220066   95.00    5.00    0.00    0.00  100.00     6    745.00      0.00  796296  721560   0.27   8493.00      0.00      0.00       0  perf_experiment

# Time        UID       PID    %usr %system  %guest   %wait    %CPU   CPU  minflt/s  majflt/s     VSZ     RSS   %MEM   kB_rd/s   kB_wr/s kB_ccwr/s iodelay  Command
04:47:49 AM  1006    220066   93.00    4.00    0.00    0.00   97.00     6   8838.00      0.00  796692  721936   0.27   7840.50  32768.00      0.00       2  perf_experiment

# Time        UID       PID    %usr %system  %guest   %wait    %CPU   CPU  minflt/s  majflt/s     VSZ     RSS   %MEM   kB_rd/s   kB_wr/s kB_ccwr/s iodelay  Command
04:47:50 AM  1006    220066   97.00    3.00    0.00    0.00  100.00     6    689.00      0.00  797076  722316   0.27   8157.50      0.00      0.00       0  perf_experiment

# Time        UID       PID    %usr %system  %guest   %wait    %CPU   CPU  minflt/s  majflt/s     VSZ     RSS   %MEM   kB_rd/s   kB_wr/s kB_ccwr/s iodelay  Command
04:47:51 AM  1006    220066   97.00    3.00    0.00    0.00  100.00     6   1116.00      0.00  797444  722712   0.27   8100.00      0.00      0.00       0  perf_experiment

# Time        UID       PID    %usr %system  %guest   %wait    %CPU   CPU  minflt/s  majflt/s     VSZ     RSS   %MEM   kB_rd/s   kB_wr/s kB_ccwr/s iodelay  Command
04:47:52 AM  1006    220066   98.00    2.00    0.00    0.00  100.00     6    766.00      0.00  797840  723084   0.27   7922.50      0.00      0.00       0  perf_experiment

# Time        UID       PID    %usr %system  %guest   %wait    %CPU   CPU  minflt/s  majflt/s     VSZ     RSS   %MEM   kB_rd/s   kB_wr/s kB_ccwr/s iodelay  Command
04:47:53 AM  1006    220066   96.00    4.00    0.00    0.00  100.00     6    703.00      0.00  798220  723468   0.27   8072.50      0.00      0.00       0  perf_experiment

# Time        UID       PID    %usr %system  %guest   %wait    %CPU   CPU  minflt/s  majflt/s     VSZ     RSS   %MEM   kB_rd/s   kB_wr/s kB_ccwr/s iodelay  Command
04:47:54 AM  1006    220066   96.00    4.00    0.00    0.00  100.00     6    718.00      0.00  798752  723900   0.27   8234.00      0.00      0.00       0  perf_experiment

# Time        UID       PID    %usr %system  %guest   %wait    %CPU   CPU  minflt/s  majflt/s     VSZ     RSS   %MEM   kB_rd/s   kB_wr/s kB_ccwr/s iodelay  Command
04:47:55 AM  1006    220066   97.00    3.00    0.00    0.00  100.00     6    682.00      0.00  799132  724288   0.27   8195.50      0.00      0.00       0  perf_experiment

# Time        UID       PID    %usr %system  %guest   %wait    %CPU   CPU  minflt/s  majflt/s     VSZ     RSS   %MEM   kB_rd/s   kB_wr/s kB_ccwr/s iodelay  Command
04:47:56 AM  1006    220066   97.00    3.00    0.00    0.00  100.00     6    656.00      0.00  799528  724636   0.27   7913.50      0.00      0.00       0  perf_experiment

# Time        UID       PID    %usr %system  %guest   %wait    %CPU   CPU  minflt/s  majflt/s     VSZ     RSS   %MEM   kB_rd/s   kB_wr/s kB_ccwr/s iodelay  Command
04:47:57 AM  1006    220066   98.00    2.00    0.00    0.00  100.00     6    705.00      0.00  799908  725040   0.27   8238.00      0.00      0.00       0  perf_experiment

# Time        UID       PID    %usr %system  %guest   %wait    %CPU   CPU  minflt/s  majflt/s     VSZ     RSS   %MEM   kB_rd/s   kB_wr/s kB_ccwr/s iodelay  Command
04:47:58 AM  1006    220066   98.00    2.00    0.00    0.00  100.00     6    662.00      0.00  800304  725452   0.28   8074.00      0.00      0.00       0  perf_experiment

# Time        UID       PID    %usr %system  %guest   %wait    %CPU   CPU  minflt/s  majflt/s     VSZ     RSS   %MEM   kB_rd/s   kB_wr/s kB_ccwr/s iodelay  Command
04:47:59 AM  1006    220066   98.00    2.00    0.00    0.00  100.00     6    672.00      0.00  800684  725848   0.28   8237.50      0.00      0.00       0  perf_experiment

# Time        UID       PID    %usr %system  %guest   %wait    %CPU   CPU  minflt/s  majflt/s     VSZ     RSS   %MEM   kB_rd/s   kB_wr/s kB_ccwr/s iodelay  Command
04:48:00 AM  1006    220066   99.00    2.00    0.00    0.00  101.00     6    649.00      0.00  801080  726244   0.28   7930.50      0.00      0.00       0  perf_experiment

# Time        UID       PID    %usr %system  %guest   %wait    %CPU   CPU  minflt/s  majflt/s     VSZ     RSS   %MEM   kB_rd/s   kB_wr/s kB_ccwr/s iodelay  Command
04:48:01 AM  1006    220066   96.00    3.00    0.00    0.00   99.00     6    679.00      0.00  801444  726636   0.28   8333.50      0.00      0.00       0  perf_experiment

# Time        UID       PID    %usr %system  %guest   %wait    %CPU   CPU  minflt/s  majflt/s     VSZ     RSS   %MEM   kB_rd/s   kB_wr/s kB_ccwr/s iodelay  Command
04:48:02 AM  1006    220066   99.00    1.00    0.00    0.00  100.00     6    683.00      0.00  801832  727096   0.28   8321.50      0.00      0.00       0  perf_experiment

# Time        UID       PID    %usr %system  %guest   %wait    %CPU   CPU  minflt/s  majflt/s     VSZ     RSS   %MEM   kB_rd/s   kB_wr/s kB_ccwr/s iodelay  Command
04:48:03 AM  1006    220066   98.00    2.00    0.00    0.00  100.00     6    635.00      0.00  802220  727412   0.28   7852.00      0.00      0.00       0  perf_experiment

# Time        UID       PID    %usr %system  %guest   %wait    %CPU   CPU  minflt/s  majflt/s     VSZ     RSS   %MEM   kB_rd/s   kB_wr/s kB_ccwr/s iodelay  Command
04:48:04 AM  1006    220066   94.00    4.00    0.00    0.00   98.00     6   8873.00      0.00  802608  727872   0.28   8300.50  32768.00      0.00       3  perf_experiment

# Time        UID       PID    %usr %system  %guest   %wait    %CPU   CPU  minflt/s  majflt/s     VSZ     RSS   %MEM   kB_rd/s   kB_wr/s kB_ccwr/s iodelay  Command
04:48:05 AM  1006    220066   98.00    2.00    0.00    0.00  100.00     6    795.00      0.00  802996  728232   0.28   7914.00      0.00      0.00       0  perf_experiment

# Time        UID       PID    %usr %system  %guest   %wait    %CPU   CPU  minflt/s  majflt/s     VSZ     RSS   %MEM   kB_rd/s   kB_wr/s kB_ccwr/s iodelay  Command
04:48:06 AM  1006    220066   98.00    2.00    0.00    0.00  100.00     6   1011.00      0.00  803384  728624   0.28   7690.50      0.00      0.00       0  perf_experiment

# Time        UID       PID    %usr %system  %guest   %wait    %CPU   CPU  minflt/s  majflt/s     VSZ     RSS   %MEM   kB_rd/s   kB_wr/s kB_ccwr/s iodelay  Command
04:48:07 AM  1006    220066   95.00    5.00    0.00    0.00  100.00     6   1080.00      0.00  803772  729008   0.28   8368.50      0.00      0.00       0  perf_experiment

# Time        UID       PID    %usr %system  %guest   %wait    %CPU   CPU  minflt/s  majflt/s     VSZ     RSS   %MEM   kB_rd/s   kB_wr/s kB_ccwr/s iodelay  Command
04:48:08 AM  1006    220066   99.00    1.00    0.00    0.00  100.00     6    820.00      0.00  804160  729424   0.28   8390.50      0.00      0.00       0  perf_experiment

# Time        UID       PID    %usr %system  %guest   %wait    %CPU   CPU  minflt/s  majflt/s     VSZ     RSS   %MEM   kB_rd/s   kB_wr/s kB_ccwr/s iodelay  Command
04:48:09 AM  1006    220066   97.00    3.00    0.00    0.00  100.00     6    679.00      0.00  804672  729820   0.28   8068.50      0.00      0.00       0  perf_experiment

# Time        UID       PID    %usr %system  %guest   %wait    %CPU   CPU  minflt/s  majflt/s     VSZ     RSS   %MEM   kB_rd/s   kB_wr/s kB_ccwr/s iodelay  Command