4,Faster,100,5000000,2500000,8,32,48218,5000000


resource usage stats

Linux 5.4.0-42-generic (arcon1) 	10/25/2020 	_x86_64_	(64 CPU)

# Time        UID       PID    %usr %system  %guest   %wait    %CPU   CPU  minflt/s  majflt/s     VSZ     RSS   %MEM   kB_rd/s   kB_wr/s kB_ccwr/s iodelay  Command
04:26:35 AM  1006    219923   77.00   21.00    0.00    0.00   98.00     3 144540.00      0.00  658308  583276   0.22      0.00      4.00      0.00       0  perf_experiment

# Time        UID       PID    %usr %system  %guest   %wait    %CPU   CPU  minflt/s  majflt/s     VSZ     RSS   %MEM   kB_rd/s   kB_wr/s kB_ccwr/s iodelay  Command
04:26:36 AM  1006    219923   98.00    2.00    0.00    0.00  100.00     3  17442.00      0.00  658704  583876   0.22      0.00      0.00      0.00       0  perf_experiment

# Time        UID       PID    %usr %system  %guest   %wait    %CPU   CPU  minflt/s  majflt/s     VSZ     RSS   %MEM   kB_rd/s   kB_wr/s kB_ccwr/s iodelay  Command
04:26:37 AM  1006    219923   93.00    3.00    0.00    0.00   96.00     3  43108.00      0.00  659100  584188   0.22   1221.50  65536.00      0.00       4  perf_experiment

# Time        UID       PID    %usr %system  %guest   %wait    %CPU   CPU  minflt/s  majflt/s     VSZ     RSS   %MEM   kB_rd/s   kB_wr/s kB_ccwr/s iodelay  Command
04:26:38 AM  1006    219923   97.00    3.00    0.00    0.00  100.00    35    634.00      0.00  659100  584292   0.22   7843.50      0.00      0.00       0  perf_experiment

# Time        UID       PID    %usr %system  %guest   %wait    %CPU   CPU  minflt/s  majflt/s     VSZ     RSS   %MEM   kB_rd/s   kB_wr/s kB_ccwr/s iodelay  Command
04:26:39 AM  1006    219923   97.00    3.00    0.00    0.00  100.00    35    722.00      0.00  659100  584292   0.22   8009.50      0.00      0.00       0  perf_experiment

# Time        UID       PID    %usr %system  %guest   %wait    %CPU   CPU  minflt/s  majflt/s     VSZ     RSS   %MEM   kB_rd/s   kB_wr/s kB_ccwr/s iodelay  Command
04:26:40 AM  1006    219923   97.00    3.00    0.00    0.00  100.00    35    930.00      0.00  659100  584292   0.22   7631.00      0.00      0.00       0  perf_experiment

# Time        UID       PID    %usr %system  %guest   %wait    %CPU   CPU  minflt/s  majflt/s     VSZ     RSS   %MEM   kB_rd/s   kB_wr/s kB_ccwr/s iodelay  Command
04:26:41 AM  1006    219923   99.00    1.00    0.00    0.00  100.00    35    392.00      0.00  659100  584292   0.22   7504.00      0.00      0.00       0  perf_experiment

# Time        UID       PID    %usr %system  %guest   %wait    %CPU   CPU  minflt/s  majflt/s     VSZ     RSS   %MEM   kB_rd/s   kB_wr/s kB_ccwr/s iodelay  Command
04:26:42 AM  1006    219923   99.00    1.00    0.00    0.00  100.00    35    408.00      0.00  659100  584292   0.22   7843.50      0.00      0.00       0  perf_experiment

# Time        UID       PID    %usr %system  %guest   %wait    %CPU   CPU  minflt/s  majflt/s     VSZ     RSS   %MEM   kB_rd/s   kB_wr/s kB_ccwr/s iodelay  Command
04:26:43 AM  1006    219923   98.00    2.00    0.00    0.00  100.00    35    924.00      0.00  659100  584292   0.22   7775.00      0.00      0.00       0  perf_experiment

# Time        UID       PID    %usr %system  %guest   %wait    %CPU   CPU  minflt/s  majflt/s     VSZ     RSS   %MEM   kB_rd/s   kB_wr/s kB_ccwr/s iodelay  Command
04:26:44 AM  1006    219923   98.00    2.00    0.00    0.00  100.00    35    405.00      0.00  659100  584292   0.22   7831.00      0.00      0.00       0  perf_experiment

# Time        UID       PID    %usr %system  %guest   %wait    %CPU   CPU  minflt/s  majflt/s     VSZ     RSS   %MEM   kB_rd/s   kB_wr/s kB_ccwr/s iodelay  Command
04:26:45 AM  1006    219923   99.00    1.00    0.00    0.00  100.00    35    398.00      0.00  659100  584292   0.22   7624.50      0.00      0.00       0  perf_experiment

# Time        UID       PID    %usr %system  %guest   %wait    %CPU   CPU  minflt/s  majflt/s     VSZ     RSS   %MEM   kB_rd/s   kB_wr/s kB_ccwr/s iodelay  Command
04:26:46 AM  1006    219923   99.00    1.00    0.00    0.00  100.00    35    923.00      0.00  659100  584292   0.22   7663.00      0.00      0.00       0  perf_experiment

# Time        UID       PID    %usr %system  %guest   %wait    %CPU   CPU  minflt/s  majflt/s     VSZ     RSS   %MEM   kB_rd/s   kB_wr/s kB_ccwr/s iodelay  Command
04:26:47 AM  1006    219923   98.00    2.00    0.00    0.00  100.00    35    398.00      0.00  659100  584292   0.22   7704.00      0.00      0.00       0  perf_experiment

# Time        UID       PID    %usr %system  %guest   %wait    %CPU   CPU  minflt/s  majflt/s     VSZ     RSS   %MEM   kB_rd/s   kB_wr/s kB_ccwr/s iodelay  Command
04:26:48 AM  1006    219923   98.00    2.00    0.00    0.00  100.00    35    400.00      0.00  659100  584292   0.22   7981.00      0.00      0.00       0  perf_experiment

# Time        UID       PID    %usr %system  %guest   %wait    %CPU   CPU  minflt/s  majflt/s     VSZ     RSS   %MEM   kB_rd/s   kB_wr/s kB_ccwr/s iodelay  Command
04:26:49 AM  1006    219923   99.00    1.00    0.00    0.00  100.00    35    407.00      0.00  659100  584292   0.22   7815.00      0.00      0.00       0  perf_experiment

# Time        UID       PID    %usr %system  %guest   %wait    %CPU   CPU  minflt/s  majflt/s     VSZ     RSS   %MEM   kB_rd/s   kB_wr/s kB_ccwr/s iodelay  Command
04:26:50 AM  1006    219923  100.00    0.00    0.00    0.00  100.00    35    927.00      0.00  659100  584292   0.22   7755.50      0.00      0.00       0  perf_experiment

# Time        UID       PID    %usr %system  %guest   %wait    %CPU   CPU  minflt/s  majflt/s     VSZ     RSS   %MEM   kB_rd/s   kB_wr/s kB_ccwr/s iodelay  Command
04:26:51 AM  1006    219923   97.00    3.00    0.00    0.00  100.00    35    398.00      0.00  659100  584292   0.22   7774.50      0.00      0.00       0  perf_experiment

# Time        UID       PID    %usr %system  %guest   %wait    %CPU   CPU  minflt/s  majflt/s     VSZ     RSS   %MEM   kB_rd/s   kB_wr/s kB_ccwr/s iodelay  Command
04:26:52 AM  1006    219923   96.00    2.00    0.00    0.00   98.00    35   8593.00      0.00  659100  584292   0.22   7530.00  32768.00      0.00       3  perf_experiment

# Time        UID       PID    %usr %system  %guest   %wait    %CPU   CPU  minflt/s  majflt/s     VSZ     RSS   %MEM   kB_rd/s   kB_wr/s kB_ccwr/s iodelay  Command
04:26:53 AM  1006    219923   99.00    1.00    0.00    0.00  100.00    35    431.00      0.00  659228  584372   0.22   7900.50      0.00      0.00       0  perf_experiment

# Time        UID       PID    %usr %system  %guest   %wait    %CPU   CPU  minflt/s  majflt/s     VSZ     RSS   %MEM   kB_rd/s   kB_wr/s kB_ccwr/s iodelay  Command
04:26:54 AM  1006    219923   97.00    2.00    0.00    0.00   99.00    35    383.00      0.00  659228  584372   0.22   7669.50      0.00      0.00       0  perf_experiment

# Time        UID       PID    %usr %system  %guest   %wait    %CPU   CPU  minflt/s  majflt/s     VSZ     RSS   %MEM   kB_rd/s   kB_wr/s kB_ccwr/s iodelay  Command
04:26:55 AM  1006    219923   98.00    2.00    0.00    0.00  100.00    35    447.00      0.00  659228  584372   0.22   7785.00      0.00      0.00       0  perf_experiment

# Time        UID       PID    %usr %system  %guest   %wait    %CPU   CPU  minflt/s  majflt/s     VSZ     RSS   %MEM   kB_rd/s   kB_wr/s kB_ccwr/s iodelay  Command
04:26:56 AM  1006    219923   98.00    3.00    0.00    0.00  101.00    35   1018.00      0.00  659228  584372   0.22   7537.50      0.00      0.00       0  perf_experiment

# Time        UID       PID    %usr %system  %guest   %wait    %CPU   CPU  minflt/s  majflt/s     VSZ     RSS   %MEM   kB_rd/s   kB_wr/s kB_ccwr/s iodelay  Command
04:26:57 AM  1006    219923   98.00    2.00    0.00    0.00  100.00    35    458.00      0.00  659228  584372   0.22   7634.50      0.00      0.00       0  perf_experiment

# Time        UID       PID    %usr %system  %guest   %wait    %CPU   CPU  minflt/s  majflt/s     VSZ     RSS   %MEM   kB_rd/s   kB_wr/s kB_ccwr/s iodelay  Command
04:26:58 AM  1006    219923   99.00    1.00    0.00    0.00  100.00    35    443.00      0.00  659228  584388   0.22   7618.50      0.00      0.00       0  perf_experiment

# Time        UID       PID    %usr %system  %guest   %wait    %CPU   CPU  minflt/s  majflt/s     VSZ     RSS   %MEM   kB_rd/s   kB_wr/s kB_ccwr/s iodelay  Command
04:26:59 AM  1006    219923   99.00    1.00    0.00    0.00  100.00    35    440.00      0.00  659228  584388   0.22   8066.50      0.00      0.00       0  perf_experiment

# Time        UID       PID    %usr %system  %guest   %wait    %CPU   CPU  minflt/s  majflt/s     VSZ     RSS   %MEM   kB_rd/s   kB_wr/s kB_ccwr/s iodelay  Command
04:27:00 AM  1006    219923   98.00    2.00    0.00    0.00  100.00    35    404.00      0.00  659228  584396   0.22   7729.00      0.00      0.00       0  perf_experiment

# Time        UID       PID    %usr %system  %guest   %wait    %CPU   CPU  minflt/s  majflt/s     VSZ     RSS   %MEM   kB_rd/s   kB_wr/s kB_ccwr/s iodelay  Command
04:27:01 AM  1006    219923   96.00    4.00    0.00    0.00  100.00    35    434.00      0.00  659228  584396   0.22   7822.00      0.00      0.00       0  perf_experiment

# Time        UID       PID    %usr %system  %guest   %wait    %CPU   CPU  minflt/s  majflt/s     VSZ     RSS   %MEM   kB_rd/s   kB_wr/s kB_ccwr/s iodelay  Command
04:27:02 AM  1006    219923   98.00    2.00    0.00    0.00  100.00    35    384.00      0.00  659228  584396   0.22   7668.00      0.00      0.00       0  perf_experiment

# Time        UID       PID    %usr %system  %guest   %wait    %CPU   CPU  minflt/s  majflt/s     VSZ     RSS   %MEM   kB_rd/s   kB_wr/s kB_ccwr/s iodelay  Command
04:27:03 AM  1006    219923   97.00    3.00    0.00    0.00  100.00    35   1060.00      0.00  659228  584396   0.22   7577.50      0.00      0.00       0  perf_experiment

# Time        UID       PID    %usr %system  %guest   %wait    %CPU   CPU  minflt/s  majflt/s     VSZ     RSS   %MEM   kB_rd/s   kB_wr/s kB_ccwr/s iodelay  Command
04:27:04 AM  1006    219923   99.00    1.00    0.00    0.00  100.00    35    524.00      0.00  659228  584396   0.22   7905.00      0.00      0.00       0  perf_experiment

# Time        UID       PID    %usr %system  %guest   %wait    %CPU   CPU  minflt/s  majflt/s     VSZ     RSS   %MEM   kB_rd/s   kB_wr/s kB_ccwr/s iodelay  Command
04:27:05 AM  1006    219923   96.00    4.00    0.00    0.00  100.00    35    496.00      0.00  659228  584396   0.22   8087.50      0.00      0.00       0  perf_experiment

# Time        UID       PID    %usr %system  %guest   %wait    %CPU   CPU  minflt/s  majflt/s     VSZ     RSS   %MEM   kB_rd/s   kB_wr/s kB_ccwr/s iodelay  Command
04:27:06 AM  1006    219923   98.00    2.00    0.00    0.00  100.00    35    441.00      0.00  659228  584396   0.22   7886.00      0.00      0.00       0  perf_experiment

# Time        UID       PID    %usr %system  %guest   %wait    %CPU   CPU  minflt/s  majflt/s     VSZ     RSS   %MEM   kB_rd/s   kB_wr/s kB_ccwr/s iodelay  Command
04:27:07 AM  1006    219923   98.00    2.00    0.00    0.00  100.00    35    417.00      0.00  659228  584396   0.22   7526.50      0.00      0.00       0  perf_experiment

# Time        UID       PID    %usr %system  %guest   %wait    %CPU   CPU  minflt/s  majflt/s     VSZ     RSS   %MEM   kB_rd/s   kB_wr/s kB_ccwr/s iodelay  Command
04:27:08 AM  1006    219923  100.00    0.00    0.00    0.00  100.00    35    428.00      0.00  659228  584396   0.22   8151.00      0.00      0.00       0  perf_experiment

# Time        UID       PID    %usr %system  %guest   %wait    %CPU   CPU  minflt/s  majflt/s     VSZ     RSS   %MEM   kB_rd/s   kB_wr/s kB_ccwr/s iodelay  Command
04:27:09 AM  1006    219923  100.00    0.00    0.00    0.00  100.00    35    429.00      0.00  659228  584396   0.22   7770.00      0.00      0.00       0  perf_experiment

# Time        UID       PID    %usr %system  %guest   %wait    %CPU   CPU  minflt/s  majflt/s     VSZ     RSS   %MEM   kB_rd/s   kB_wr/s kB_ccwr/s iodelay  Command
04:27:10 AM  1006    219923   98.00    2.00    0.00    0.00  100.00    35    385.00      0.00  659228  584396   0.22   7613.00      0.00      0.00       0  perf_experiment

# Time        UID       PID    %usr %system  %guest   %wait    %CPU   CPU  minflt/s  majflt/s     VSZ     RSS   %MEM   kB_rd/s   kB_wr/s kB_ccwr/s iodelay  Command
04:27:11 AM  1006    219923   97.00    3.00    0.00    0.00  100.00    35    426.00      0.00  659228  584396   0.22   7744.00      0.00      0.00       0  perf_experiment

# Time        UID       PID    %usr %system  %guest   %wait    %CPU   CPU  minflt/s  majflt/s     VSZ     RSS   %MEM   kB_rd/s   kB_wr/s kB_ccwr/s iodelay  Command
04:27:12 AM  1006    219923   98.00    2.00    0.00    0.00  100.00    35   1153.00      0.00  659228  584428   0.22   7915.50      0.00      0.00       0  perf_experiment

# Time        UID       PID    %usr %system  %guest   %wait    %CPU   CPU  minflt/s  majflt/s     VSZ     RSS   %MEM   kB_rd/s   kB_wr/s kB_ccwr/s iodelay  Command
04:27:13 AM  1006    219923   96.00    2.00    0.00    0.00   98.00    35   8715.00      0.00  659228  584444   0.22   7560.00  32768.00      0.00       2  perf_experiment

# Time        UID       PID    %usr %system  %guest   %wait    %CPU   CPU  minflt/s  majflt/s     VSZ     RSS   %MEM   kB_rd/s   kB_wr/s kB_ccwr/s iodelay  Command
04:27:14 AM  1006    219923   97.00    2.00    0.00    0.00   99.00    35    536.00      0.00  659228  584444   0.22   7694.50      0.00      0.00       0  perf_experiment

# Time        UID       PID    %usr %system  %guest   %wait    %CPU   CPU  minflt/s  majflt/s     VSZ     RSS   %MEM   kB_rd/s   kB_wr/s kB_ccwr/s iodelay  Command
04:27:15 AM  1006    219923   99.00    1.00    0.00    0.00  100.00    35    487.00      0.00  659228  584444   0.22   7556.00      0.00      0.00       0  perf_experiment

# Time        UID       PID    %usr %system  %guest   %wait    %CPU   CPU  minflt/s  majflt/s     VSZ     RSS   %MEM   kB_rd/s   kB_wr/s kB_ccwr/s iodelay  Command
04:27:16 AM  1006    219923   97.03    2.97    0.00    0.00  100.00    35    391.09      0.00  659228  584444   0.22   7673.27      0.00      0.00       0  perf_experiment

# Time        UID       PID    %usr %system  %guest   %wait    %CPU   CPU  minflt/s  majflt/s     VSZ     RSS   %MEM   kB_rd/s   kB_wr/s kB_ccwr/s iodelay  Command
04:27:17 AM  1006    219923   97.00    3.00    0.00    0.00  100.00    35    466.00      0.00  659228  584444   0.22   8195.50      0.00      0.00       0  perf_experiment

# Time        UID       PID    %usr %system  %guest   %wait    %CPU   CPU  minflt/s  majflt/s     VSZ     RSS   %MEM   kB_rd/s   kB_wr/s kB_ccwr/s iodelay  Command
04:27:18 AM  1006    219923   97.00    3.00    0.00    0.00  100.00    35    431.00      0.00  659228  584444   0.22   7786.00      0.00      0.00       0  perf_experiment

# Time        UID       PID    %usr %system  %guest   %wait    %CPU   CPU  minflt/s  majflt/s     VSZ     RSS   %MEM   kB_rd/s   kB_wr/s kB_ccwr/s iodelay  Command
04:27:19 AM  1006    219923   97.00    3.00    0.00    0.00  100.00    35    394.00      0.00  659228  584444   0.22   7575.00      0.00      0.00       0  perf_experiment

# Time        UID       PID    %usr %system  %guest   %wait    %CPU   CPU  minflt/s  majflt/s     VSZ     RSS   %MEM   kB_rd/s   kB_wr/s kB_ccwr/s iodelay  Command
04:27:20 AM  1006    219923   98.00    1.00    0.00    0.00   99.00    35    404.00      0.00  659228  584444   0.22   7638.00      0.00      0.00       0  perf_experiment

# Time        UID       PID    %usr %system  %guest   %wait    %CPU   CPU  minflt/s  majflt/s     VSZ     RSS   %MEM   kB_rd/s   kB_wr/s kB_ccwr/s iodelay  Command
04:27:21 AM  1006    219923   99.00    2.00    0.00    0.00  101.00    35    408.00      0.00  659228  584444   0.22   7711.50      0.00      0.00       0  perf_experiment

# Time        UID       PID    %usr %system  %guest   %wait    %CPU   CPU  minflt/s  majflt/s     VSZ     RSS   %MEM   kB_rd/s   kB_wr/s kB_ccwr/s iodelay  Command
04:27:22 AM  1006    219923   97.00    2.00    0.00    0.00   99.00    35    418.00      0.00  659228  584444   0.22   7988.00      0.00      0.00       0  perf_experiment

# Time        UID       PID    %usr %system  %guest   %wait    %CPU   CPU  minflt/s  majflt/s     VSZ     RSS   %MEM   kB_rd/s   kB_wr/s kB_ccwr/s iodelay  Command
04:27:23 AM  1006    219923   99.00    2.00    0.00    0.00  101.00    35    557.00      0.00  659228  584444   0.22   7943.50      0.00      0.00       0  perf_experiment

# Time        UID       PID    %usr %system  %guest   %wait    %CPU   CPU  minflt/s  majflt/s     VSZ     RSS   %MEM   kB_rd/s   kB_wr/s kB_ccwr/s iodelay  Command
04:27:24 AM  1006    219923   98.00    1.00    0.00    0.00   99.00    35   1216.00      0.00  659228  584476   0.22   7671.00      0.00      0.00       0  perf_experiment

# Time        UID       PID    %usr %system  %guest   %wait    %CPU   CPU  minflt/s  majflt/s     VSZ     RSS   %MEM   kB_rd/s   kB_wr/s kB_ccwr/s iodelay  Command
04:27:25 AM  1006    219923   98.00    2.00    0.00    0.00  100.00    35    554.00      0.00  659228  584476   0.22   7731.00      0.00      0.00       0  perf_experiment

# Time        UID       PID    %usr %system  %guest   %wait    %CPU   CPU  minflt/s  majflt/s     VSZ     RSS   %MEM   kB_rd/s   kB_wr/s kB_ccwr/s iodelay  Command
04:27:26 AM  1006    219923   99.00    1.00    0.00    0.00  100.00    35    589.00      0.00  659228  584476   0.22   7807.00      0.00      0.00       0  perf_experiment

# Time        UID       PID    %usr %system  %guest   %wait    %CPU   CPU  minflt/s  majflt/s     VSZ     RSS   %MEM   kB_rd/s   kB_wr/s kB_ccwr/s iodelay  Command
04:27:27 AM  1006    219923   99.00    2.00    0.00    0.00  101.00    35    489.00      0.00  659228  584476   0.22   7823.50      0.00      0.00       0  perf_experiment

# Time        UID       PID    %usr %system  %guest   %wait    %CPU   CPU  minflt/s  majflt/s     VSZ     RSS   %MEM   kB_rd/s   kB_wr/s kB_ccwr/s iodelay  Command
04:27:28 AM  1006    219923   99.00    1.00    0.00    0.00  100.00    35    464.00      0.00  659228  584476   0.22   7858.00      0.00      0.00       0  perf_experiment

# Time        UID       PID    %usr %system  %guest   %wait    %CPU   CPU  minflt/s  majflt/s     VSZ     RSS   %MEM   kB_rd/s   kB_wr/s kB_ccwr/s iodelay  Command
04:27:29 AM  1006    219923   96.00    3.00    0.00    0.00   99.00    35    423.00      0.00  659364  584508   0.22   7809.00      0.00      0.00       0  perf_experiment

# Time        UID       PID    %usr %system  %guest   %wait    %CPU   CPU  minflt/s  majflt/s     VSZ     RSS   %MEM   kB_rd/s   kB_wr/s kB_ccwr/s iodelay  Command
04:27:30 AM  1006    219923   99.00    1.00    0.00    0.00  100.00    35    397.00      0.00  659364  584508   0.22   7827.50      0.00      0.00       0  perf_experiment

# Time        UID       PID    %usr %system  %guest   %wait    %CPU   CPU  minflt/s  majflt/s     VSZ     RSS   %MEM   kB_rd/s   kB_wr/s kB_ccwr/s iodelay  Command
04:27:31 AM  1006    219923   98.00    2.00    0.00    0.00  100.00    35    398.00      0.00  659364  584508   0.22   7634.50      0.00      0.00       0  perf_experiment

# Time        UID       PID    %usr %system  %guest   %wait    %CPU   CPU  minflt/s  majflt/s     VSZ     RSS   %MEM   kB_rd/s   kB_wr/s kB_ccwr/s iodelay  Command
04:27:32 AM  1006    219923   99.00    2.00    0.00    0.00  101.00    35    444.00      0.00  659364  584508   0.22   8075.00      0.00      0.00       0  perf_experiment

# Time        UID       PID    %usr %system  %guest   %wait    %CPU   CPU  minflt/s  majflt/s     VSZ     RSS   %MEM   kB_rd/s   kB_wr/s kB_ccwr/s iodelay  Command
04:27:33 AM  1006    219923   96.00    3.00    0.00    0.00   99.00    35    416.00      0.00  659364  584508   0.22   7849.00      0.00      0.00       0  perf_experiment

# Time        UID       PID    %usr %system  %guest   %wait    %CPU   CPU  minflt/s  majflt/s     VSZ     RSS   %MEM   kB_rd/s   kB_wr/s kB_ccwr/s iodelay  Command
04:27:34 AM  1006    219923   96.00    2.00    0.00    0.00   98.00    35   8571.00      0.00  659364  584508   0.22   7395.50  32768.00      0.00       2  perf_experiment

# Time        UID       PID    %usr %system  %guest   %wait    %CPU   CPU  minflt/s  majflt/s     VSZ     RSS   %MEM   kB_rd/s   kB_wr/s kB_ccwr/s iodelay  Command
04:27:35 AM  1006    219923   96.00    5.00    0.00    0.00  101.00    35    398.00      0.00  659364  584548   0.22   7658.00      0.00      0.00       0  perf_experiment

# Time        UID       PID    %usr %system  %guest   %wait    %CPU   CPU  minflt/s  majflt/s     VSZ     RSS   %MEM   kB_rd/s   kB_wr/s kB_ccwr/s iodelay  Command
04:27:36 AM  1006    219923   99.00    0.00    0.00    0.00   99.00    35    422.00      0.00  659364  584548   0.22   7982.50      0.00      0.00       0  perf_experiment

# Time        UID       PID    %usr %system  %guest   %wait    %CPU   CPU  minflt/s  majflt/s     VSZ     RSS   %MEM   kB_rd/s   kB_wr/s kB_ccwr/s iodelay  Command
04:27:37 AM  1006    219923   99.00    2.00    0.00    0.00  101.00    35    432.00      0.00  659364  584572   0.22   7913.50      0.00      0.00       0  perf_experiment

# Time        UID       PID    %usr %system  %guest   %wait    %CPU   CPU  minflt/s  majflt/s     VSZ     RSS   %MEM   kB_rd/s   kB_wr/s kB_ccwr/s iodelay  Command
04:27:38 AM  1006    219923   96.00    4.00    0.00    0.00  100.00    35    403.00      0.00  659364  584604   0.22   7785.50      0.00      0.00       0  perf_experiment

# Time        UID       PID    %usr %system  %guest   %wait    %CPU   CPU  minflt/s  majflt/s     VSZ     RSS   %MEM   kB_rd/s   kB_wr/s kB_ccwr/s iodelay  Command
04:27:39 AM  1006    219923   98.00    1.00    0.00    0.00   99.00    35   1305.00      0.00  659364  584604   0.22   7535.00      0.00      0.00       0  perf_experiment

# Time        UID       PID    %usr %system  %guest   %wait    %CPU   CPU  minflt/s  majflt/s     VSZ     RSS   %MEM   kB_rd/s   kB_wr/s kB_ccwr/s iodelay  Command
04:27:40 AM  1006    219923   99.00    1.00    0.00    0.00  100.00    35    847.00      0.00  659364  584604   0.22   7632.50      0.00      0.00       0  perf_experiment

# Time        UID       PID    %usr %system  %guest   %wait    %CPU   CPU  minflt/s  majflt/s     VSZ     RSS   %MEM   kB_rd/s   kB_wr/s kB_ccwr/s iodelay  Command
04:27:41 AM  1006    219923   99.00    2.00    0.00    0.00  101.00    35    433.00      0.00  659364  584604   0.22   7579.00      0.00      0.00       0  perf_experiment

# Time        UID       PID    %usr %system  %guest   %wait    %CPU   CPU  minflt/s  majflt/s     VSZ     RSS   %MEM   kB_rd/s   kB_wr/s kB_ccwr/s iodelay  Command
04:27:42 AM  1006    219923   98.00    1.00    0.00    0.00   99.00    35    489.00      0.00  659364  584604   0.22   8174.50      0.00      0.00       0  perf_experiment

# Time        UID       PID    %usr %system  %guest   %wait    %CPU   CPU  minflt/s  majflt/s     VSZ     RSS   %MEM   kB_rd/s   kB_wr/s kB_ccwr/s iodelay  Command
04:27:43 AM  1006    219923   99.00    1.00    0.00    0.00  100.00    35    645.00      0.00  659364  584604   0.22   7780.50      0.00      0.00       0  perf_experiment

# Time        UID       PID    %usr %system  %guest   %wait    %CPU   CPU  minflt/s  majflt/s     VSZ     RSS   %MEM   kB_rd/s   kB_wr/s kB_ccwr/s iodelay  Command
04:27:44 AM  1006    219923   99.00    2.00    0.00    0.00  101.00    35    422.00      0.00  659364  584604   0.22   7581.00      0.00      0.00       0  perf_experiment

# Time        UID       PID    %usr %system  %guest   %wait    %CPU   CPU  minflt/s  majflt/s     VSZ     RSS   %MEM   kB_rd/s   kB_wr/s kB_ccwr/s iodelay  Command
04:27:45 AM  1006    219923   97.00    2.00    0.00    0.00   99.00    35    435.00      0.00  659364  584604   0.22   7659.00      0.00      0.00       0  perf_experiment

# Time        UID       PID    %usr %system  %guest   %wait    %CPU   CPU  minflt/s  majflt/s     VSZ     RSS   %MEM   kB_rd/s   kB_wr/s kB_ccwr/s iodelay  Command
04:27:46 AM  1006    219923   97.00    3.00    0.00    0.00  100.00    35    447.00      0.00  659364  584604   0.22   8004.00      0.00      0.00       0  perf_experiment

# Time        UID       PID    %usr %system  %guest   %wait    %CPU   CPU  minflt/s  majflt/s     VSZ     RSS   %MEM   kB_rd/s   kB_wr/s kB_ccwr/s iodelay  Command
04:27:47 AM  1006    219923   98.00    3.00    0.00    0.00  101.00    35    432.00      0.00  659364  584604   0.22   7849.50      0.00      0.00       0  perf_experiment

# Time        UID       PID    %usr %system  %guest   %wait    %CPU   CPU  minflt/s  majflt/s     VSZ     RSS   %MEM   kB_rd/s   kB_wr/s kB_ccwr/s iodelay  Command
04:27:48 AM  1006    219923   98.00    2.00    0.00    0.00  100.00    35    439.00      0.00  659364  584604   0.22   7845.00      0.00      0.00       0  perf_experiment

# Time        UID       PID    %usr %system  %guest   %wait    %CPU   CPU  minflt/s  majflt/s     VSZ     RSS   %MEM   kB_rd/s   kB_wr/s kB_ccwr/s iodelay  Command
04:27:49 AM  1006    219923   99.00    1.00    0.00    0.00  100.00    35    411.00      0.00  659364  584604   0.22   7718.50      0.00      0.00       0  perf_experiment

# Time        UID       PID    %usr %system  %guest   %wait    %CPU   CPU  minflt/s  majflt/s     VSZ     RSS   %MEM   kB_rd/s   kB_wr/s kB_ccwr/s iodelay  Command
04:27:50 AM  1006    219923   98.00    2.00    0.00    0.00  100.00    35    410.00      0.00  659364  584604   0.22   7629.00      0.00      0.00       0  perf_experiment

# Time        UID       PID    %usr %system  %guest   %wait    %CPU   CPU  minflt/s  majflt/s     VSZ     RSS   %MEM   kB_rd/s   kB_wr/s kB_ccwr/s iodelay  Command
04:27:51 AM  1006    219923   98.00    2.00    0.00    0.00  100.00    35    436.00      0.00  659364  584604   0.22   8011.50      0.00      0.00       0  perf_experiment

# Time        UID       PID    %usr %system  %guest   %wait    %CPU   CPU  minflt/s  majflt/s     VSZ     RSS   %MEM   kB_rd/s   kB_wr/s kB_ccwr/s iodelay  Command
04:27:52 AM  1006    219923   99.00    1.00    0.00    0.00  100.00    35    422.00      0.00  659364  584604   0.22   8172.00      0.00      0.00       0  perf_experiment

# Time        UID       PID    %usr %system  %guest   %wait    %CPU   CPU  minflt/s  majflt/s     VSZ     RSS   %MEM   kB_rd/s   kB_wr/s kB_ccwr/s iodelay  Command
04:27:53 AM  1006    219923   98.00    2.00    0.00    0.00  100.00    35    394.00      0.00  659364  584628   0.22   7566.00      0.00      0.00       0  perf_experiment

# Time        UID       PID    %usr %system  %guest   %wait    %CPU   CPU  minflt/s  majflt/s     VSZ     RSS   %MEM   kB_rd/s   kB_wr/s kB_ccwr/s iodelay  Command
04:27:54 AM  1006    219923   99.00    0.00    0.00    0.00   99.00    35    381.00      0.00  659364  584628   0.22   7513.50      0.00      0.00       0  perf_experiment

# Time        UID       PID    %usr %system  %guest   %wait    %CPU   CPU  minflt/s  majflt/s     VSZ     RSS   %MEM   kB_rd/s   kB_wr/s kB_ccwr/s iodelay  Command
04:27:55 AM  1006    219923   97.00    2.00    0.00    0.00   99.00    35   8581.00      0.00  659364  584628   0.22   7601.00  32768.00      0.00       2  perf_experiment

# Time        UID       PID    %usr %system  %guest   %wait    %CPU   CPU  minflt/s  majflt/s     VSZ     RSS   %MEM   kB_rd/s   kB_wr/s kB_ccwr/s iodelay  Command
04:27:56 AM  1006    219923   98.00    2.00    0.00    0.00  100.00    35    410.00      0.00  659364  584628   0.22   8009.50      0.00      0.00       0  perf_experiment

# Time        UID       PID    %usr %system  %guest   %wait    %CPU   CPU  minflt/s  majflt/s     VSZ     RSS   %MEM   kB_rd/s   kB_wr/s kB_ccwr/s iodelay  Command
04:27:57 AM  1006    219923   99.00    0.00    0.00    0.00   99.00    35    385.00      0.00  659364  584628   0.22   7506.50      0.00      0.00       0  perf_experiment

# Time        UID       PID    %usr %system  %guest   %wait    %CPU   CPU  minflt/s  majflt/s     VSZ     RSS   %MEM   kB_rd/s   kB_wr/s kB_ccwr/s iodelay  Command
04:27:58 AM  1006    219923   99.00    1.00    0.00    0.00  100.00    35    402.00      0.00  659364  584628   0.22   7619.00      0.00      0.00       0  perf_experiment

# Time        UID       PID    %usr %system  %guest   %wait    %CPU   CPU  minflt/s  majflt/s     VSZ     RSS   %MEM   kB_rd/s   kB_wr/s kB_ccwr/s iodelay  Command
04:27:59 AM  1006    219923   98.00    2.00    0.00    0.00  100.00    35   1499.00      0.00  659364  584628   0.22   7746.50      0.00      0.00       0  perf_experiment

# Time        UID       PID    %usr %system  %guest   %wait    %CPU   CPU  minflt/s  majflt/s     VSZ     RSS   %MEM   kB_rd/s   kB_wr/s kB_ccwr/s iodelay  Command
04:28:00 AM  1006    219923   98.00    3.00    0.00    0.00  101.00    35    847.00      0.00  659364  584628   0.22   7941.00      0.00      0.00       0  perf_experiment

# Time        UID       PID    %usr %system  %guest   %wait    %CPU   CPU  minflt/s  majflt/s     VSZ     RSS   %MEM   kB_rd/s   kB_wr/s kB_ccwr/s iodelay  Command
04:28:01 AM  1006    219923   99.00    0.00    0.00    0.00   99.00    35    802.00      0.00  659500  584676   0.22   7759.50      0.00      0.00       0  perf_experiment

# Time        UID       PID    %usr %system  %guest   %wait    %CPU   CPU  minflt/s  majflt/s     VSZ     RSS   %MEM   kB_rd/s   kB_wr/s kB_ccwr/s iodelay  Command
04:28:02 AM  1006    219923   99.00    1.00    0.00    0.00  100.00    35    672.00      0.00  659500  584696   0.22   8116.50      0.00      0.00       0  perf_experiment

# Time        UID       PID    %usr %system  %guest   %wait    %CPU   CPU  minflt/s  majflt/s     VSZ     RSS   %MEM   kB_rd/s   kB_wr/s kB_ccwr/s iodelay  Command