4,Faster,100,5000000,2500000,32,128,57917,5000000


resource usage stats

Linux 5.4.0-42-generic (arcon1) 	10/25/2020 	_x86_64_	(64 CPU)

# Time        UID       PID    %usr %system  %guest   %wait    %CPU   CPU  minflt/s  majflt/s     VSZ     RSS   %MEM   kB_rd/s   kB_wr/s kB_ccwr/s iodelay  Command
05:31:04 AM  1006    220126   77.00   21.00    0.00    0.00   98.00     6 144505.00      0.00  658176  583348   0.22      0.00      4.00      0.00       0  perf_experiment

# Time        UID       PID    %usr %system  %guest   %wait    %CPU   CPU  minflt/s  majflt/s     VSZ     RSS   %MEM   kB_rd/s   kB_wr/s kB_ccwr/s iodelay  Command
05:31:05 AM  1006    220126   94.00    4.00    0.00    0.00   98.00     6  48435.00      0.00  658440  583720   0.22      0.00  65536.00      0.00       2  perf_experiment

# Time        UID       PID    %usr %system  %guest   %wait    %CPU   CPU  minflt/s  majflt/s     VSZ     RSS   %MEM   kB_rd/s   kB_wr/s kB_ccwr/s iodelay  Command
05:31:06 AM  1006    220126   87.00    1.00    0.00    0.00   88.00     6  38044.00      0.00  658704  583980   0.22      0.00 131072.00      0.00      12  perf_experiment

# Time        UID       PID    %usr %system  %guest   %wait    %CPU   CPU  minflt/s  majflt/s     VSZ     RSS   %MEM   kB_rd/s   kB_wr/s kB_ccwr/s iodelay  Command
05:31:07 AM  1006    220126   86.00    5.00    0.00    0.00   91.00     6  44201.00      0.00  658968  584232   0.22      0.00 131072.00      0.00       9  perf_experiment

# Time        UID       PID    %usr %system  %guest   %wait    %CPU   CPU  minflt/s  majflt/s     VSZ     RSS   %MEM   kB_rd/s   kB_wr/s kB_ccwr/s iodelay  Command
05:31:08 AM  1006    220126   96.00    2.00    0.00    0.00   98.00     6   9390.00      0.00  659100  584400   0.22   6853.00  32768.00      0.00       3  perf_experiment

# Time        UID       PID    %usr %system  %guest   %wait    %CPU   CPU  minflt/s  majflt/s     VSZ     RSS   %MEM   kB_rd/s   kB_wr/s kB_ccwr/s iodelay  Command
05:31:09 AM  1006    220126   98.00    2.00    0.00    0.00  100.00     6    600.00      0.00  659100  584400   0.22   8553.00      0.00      0.00       0  perf_experiment

# Time        UID       PID    %usr %system  %guest   %wait    %CPU   CPU  minflt/s  majflt/s     VSZ     RSS   %MEM   kB_rd/s   kB_wr/s kB_ccwr/s iodelay  Command
05:31:10 AM  1006    220126   97.00    3.00    0.00    0.00  100.00     6   1142.00      0.00  659100  584400   0.22   8601.50      0.00      0.00       0  perf_experiment

# Time        UID       PID    %usr %system  %guest   %wait    %CPU   CPU  minflt/s  majflt/s     VSZ     RSS   %MEM   kB_rd/s   kB_wr/s kB_ccwr/s iodelay  Command
05:31:11 AM  1006    220126   97.00    2.00    0.00    0.00   99.00     6    584.00      0.00  659100  584400   0.22   8320.00      0.00      0.00       0  perf_experiment

# Time        UID       PID    %usr %system  %guest   %wait    %CPU   CPU  minflt/s  majflt/s     VSZ     RSS   %MEM   kB_rd/s   kB_wr/s kB_ccwr/s iodelay  Command
05:31:12 AM  1006    220126   99.00    2.00    0.00    0.00  101.00     6   1109.00      0.00  659100  584400   0.22   8253.50      0.00      0.00       0  perf_experiment

# Time        UID       PID    %usr %system  %guest   %wait    %CPU   CPU  minflt/s  majflt/s     VSZ     RSS   %MEM   kB_rd/s   kB_wr/s kB_ccwr/s iodelay  Command
05:31:13 AM  1006    220126   98.00    2.00    0.00    0.00  100.00     6    609.00      0.00  659100  584400   0.22   8701.50      0.00      0.00       0  perf_experiment

# Time        UID       PID    %usr %system  %guest   %wait    %CPU   CPU  minflt/s  majflt/s     VSZ     RSS   %MEM   kB_rd/s   kB_wr/s kB_ccwr/s iodelay  Command
05:31:14 AM  1006    220126   98.00    2.00    0.00    0.00  100.00     6    581.00      0.00  659100  584400   0.22   8271.50      0.00      0.00       0  perf_experiment

# Time        UID       PID    %usr %system  %guest   %wait    %CPU   CPU  minflt/s  majflt/s     VSZ     RSS   %MEM   kB_rd/s   kB_wr/s kB_ccwr/s iodelay  Command
05:31:15 AM  1006    220126   99.00    0.00    0.00    0.00   99.00     6   1065.00      0.00  659100  584400   0.22   8098.50      0.00      0.00       0  perf_experiment

# Time        UID       PID    %usr %system  %guest   %wait    %CPU   CPU  minflt/s  majflt/s     VSZ     RSS   %MEM   kB_rd/s   kB_wr/s kB_ccwr/s iodelay  Command
05:31:16 AM  1006    220126   98.00    2.00    0.00    0.00  100.00     6    646.00      0.00  659100  584400   0.22   8821.50      0.00      0.00       0  perf_experiment

# Time        UID       PID    %usr %system  %guest   %wait    %CPU   CPU  minflt/s  majflt/s     VSZ     RSS   %MEM   kB_rd/s   kB_wr/s kB_ccwr/s iodelay  Command
05:31:17 AM  1006    220126   99.00    2.00    0.00    0.00  101.00     6    579.00      0.00  659100  584400   0.22   8409.00      0.00      0.00       0  perf_experiment

# Time        UID       PID    %usr %system  %guest   %wait    %CPU   CPU  minflt/s  majflt/s     VSZ     RSS   %MEM   kB_rd/s   kB_wr/s kB_ccwr/s iodelay  Command
05:31:18 AM  1006    220126   97.00    1.00    0.00    0.00   98.00     6   8755.00      0.00  659100  584400   0.22   7970.00  32768.00      0.00       2  perf_experiment

# Time        UID       PID    %usr %system  %guest   %wait    %CPU   CPU  minflt/s  majflt/s     VSZ     RSS   %MEM   kB_rd/s   kB_wr/s kB_ccwr/s iodelay  Command
05:31:19 AM  1006    220126   97.00    2.00    0.00    0.00   99.00     6   1036.00      0.00  659100  584400   0.22   8648.00      0.00      0.00       0  perf_experiment

# Time        UID       PID    %usr %system  %guest   %wait    %CPU   CPU  minflt/s  majflt/s     VSZ     RSS   %MEM   kB_rd/s   kB_wr/s kB_ccwr/s iodelay  Command
05:31:20 AM  1006    220126   98.00    2.00    0.00    0.00  100.00     6    686.00      0.00  659100  584400   0.22   8526.00      0.00      0.00       0  perf_experiment

# Time        UID       PID    %usr %system  %guest   %wait    %CPU   CPU  minflt/s  majflt/s     VSZ     RSS   %MEM   kB_rd/s   kB_wr/s kB_ccwr/s iodelay  Command
05:31:21 AM  1006    220126   97.00    3.00    0.00    0.00  100.00     6    586.00      0.00  659100  584400   0.22   8374.00      0.00      0.00       0  perf_experiment

# Time        UID       PID    %usr %system  %guest   %wait    %CPU   CPU  minflt/s  majflt/s     VSZ     RSS   %MEM   kB_rd/s   kB_wr/s kB_ccwr/s iodelay  Command
05:31:22 AM  1006    220126  100.00    1.00    0.00    0.00  101.00     6    569.00      0.00  659100  584400   0.22   8297.00      0.00      0.00       0  perf_experiment

# Time        UID       PID    %usr %system  %guest   %wait    %CPU   CPU  minflt/s  majflt/s     VSZ     RSS   %MEM   kB_rd/s   kB_wr/s kB_ccwr/s iodelay  Command
05:31:23 AM  1006    220126   97.00    2.00    0.00    0.00   99.00     6    619.00      0.00  659100  584400   0.22   8742.50      0.00      0.00       0  perf_experiment

# Time        UID       PID    %usr %system  %guest   %wait    %CPU   CPU  minflt/s  majflt/s     VSZ     RSS   %MEM   kB_rd/s   kB_wr/s kB_ccwr/s iodelay  Command
05:31:24 AM  1006    220126   98.00    2.00    0.00    0.00  100.00     6    572.00      0.00  659100  584400   0.22   8307.50      0.00      0.00       0  perf_experiment

# Time        UID       PID    %usr %system  %guest   %wait    %CPU   CPU  minflt/s  majflt/s     VSZ     RSS   %MEM   kB_rd/s   kB_wr/s kB_ccwr/s iodelay  Command
05:31:25 AM  1006    220126   97.00    3.00    0.00    0.00  100.00     6   1149.00      0.00  659100  584400   0.22   8505.50      0.00      0.00       0  perf_experiment

# Time        UID       PID    %usr %system  %guest   %wait    %CPU   CPU  minflt/s  majflt/s     VSZ     RSS   %MEM   kB_rd/s   kB_wr/s kB_ccwr/s iodelay  Command
05:31:26 AM  1006    220126   97.00    3.00    0.00    0.00  100.00     6    638.00      0.00  659100  584400   0.22   8190.00      0.00      0.00       0  perf_experiment

# Time        UID       PID    %usr %system  %guest   %wait    %CPU   CPU  minflt/s  majflt/s     VSZ     RSS   %MEM   kB_rd/s   kB_wr/s kB_ccwr/s iodelay  Command
05:31:27 AM  1006    220126   98.00    2.00    0.00    0.00  100.00     6    707.00      0.00  659100  584400   0.22   8870.50      0.00      0.00       0  perf_experiment

# Time        UID       PID    %usr %system  %guest   %wait    %CPU   CPU  minflt/s  majflt/s     VSZ     RSS   %MEM   kB_rd/s   kB_wr/s kB_ccwr/s iodelay  Command
05:31:28 AM  1006    220126   99.00    2.00    0.00    0.00  101.00     6    603.00      0.00  659100  584400   0.22   8242.50      0.00      0.00       0  perf_experiment

# Time        UID       PID    %usr %system  %guest   %wait    %CPU   CPU  minflt/s  majflt/s     VSZ     RSS   %MEM   kB_rd/s   kB_wr/s kB_ccwr/s iodelay  Command
05:31:29 AM  1006    220126   97.00    3.00    0.00    0.00  100.00     6    639.00      0.00  659100  584424   0.22   8606.00      0.00      0.00       0  perf_experiment

# Time        UID       PID    %usr %system  %guest   %wait    %CPU   CPU  minflt/s  majflt/s     VSZ     RSS   %MEM   kB_rd/s   kB_wr/s kB_ccwr/s iodelay  Command
05:31:30 AM  1006    220126   98.00    2.00    0.00    0.00  100.00     6    625.00      0.00  659100  584424   0.22   8829.00      0.00      0.00       0  perf_experiment

# Time        UID       PID    %usr %system  %guest   %wait    %CPU   CPU  minflt/s  majflt/s     VSZ     RSS   %MEM   kB_rd/s   kB_wr/s kB_ccwr/s iodelay  Command
05:31:31 AM  1006    220126   99.00    0.00    0.00    0.00   99.00     6    562.00      0.00  659100  584424   0.22   8081.50      0.00      0.00       0  perf_experiment

# Time        UID       PID    %usr %system  %guest   %wait    %CPU   CPU  minflt/s  majflt/s     VSZ     RSS   %MEM   kB_rd/s   kB_wr/s kB_ccwr/s iodelay  Command
05:31:32 AM  1006    220126   96.00    2.00    0.00    0.00   98.00     6   9429.00      0.00  659100  584424   0.22   8664.00  32768.00      0.00       2  perf_experiment

# Time        UID       PID    %usr %system  %guest   %wait    %CPU   CPU  minflt/s  majflt/s     VSZ     RSS   %MEM   kB_rd/s   kB_wr/s kB_ccwr/s iodelay  Command
05:31:33 AM  1006    220126   98.00    2.00    0.00    0.00  100.00     6    683.00      0.00  659100  584424   0.22   8263.50      0.00      0.00       0  perf_experiment

# Time        UID       PID    %usr %system  %guest   %wait    %CPU   CPU  minflt/s  majflt/s     VSZ     RSS   %MEM   kB_rd/s   kB_wr/s kB_ccwr/s iodelay  Command
05:31:34 AM  1006    220126   98.00    2.00    0.00    0.00  100.00     6    642.00      0.00  659100  584424   0.22   8184.00      0.00      0.00       0  perf_experiment

# Time        UID       PID    %usr %system  %guest   %wait    %CPU   CPU  minflt/s  majflt/s     VSZ     RSS   %MEM   kB_rd/s   kB_wr/s kB_ccwr/s iodelay  Command
05:31:35 AM  1006    220126   98.00    2.00    0.00    0.00  100.00     6    610.00      0.00  659100  584424   0.22   8671.50      0.00      0.00       0  perf_experiment

# Time        UID       PID    %usr %system  %guest   %wait    %CPU   CPU  minflt/s  majflt/s     VSZ     RSS   %MEM   kB_rd/s   kB_wr/s kB_ccwr/s iodelay  Command
05:31:36 AM  1006    220126   98.00    3.00    0.00    0.00  101.00     6    604.00      0.00  659100  584424   0.22   8739.00      0.00      0.00       0  perf_experiment

# Time        UID       PID    %usr %system  %guest   %wait    %CPU   CPU  minflt/s  majflt/s     VSZ     RSS   %MEM   kB_rd/s   kB_wr/s kB_ccwr/s iodelay  Command
05:31:37 AM  1006    220126   97.00    2.00    0.00    0.00   99.00     6    601.00      0.00  659100  584424   0.22   8357.50      0.00      0.00       0  perf_experiment

# Time        UID       PID    %usr %system  %guest   %wait    %CPU   CPU  minflt/s  majflt/s     VSZ     RSS   %MEM   kB_rd/s   kB_wr/s kB_ccwr/s iodelay  Command
05:31:38 AM  1006    220126   98.00    3.00    0.00    0.00  101.00     6    589.00      0.00  659100  584424   0.22   8482.00      0.00      0.00       0  perf_experiment

# Time        UID       PID    %usr %system  %guest   %wait    %CPU   CPU  minflt/s  majflt/s     VSZ     RSS   %MEM   kB_rd/s   kB_wr/s kB_ccwr/s iodelay  Command
05:31:39 AM  1006    220126   97.00    2.00    0.00    0.00   99.00     6    592.00      0.00  659100  584424   0.22   8507.00      0.00      0.00       0  perf_experiment

# Time        UID       PID    %usr %system  %guest   %wait    %CPU   CPU  minflt/s  majflt/s     VSZ     RSS   %MEM   kB_rd/s   kB_wr/s kB_ccwr/s iodelay  Command
05:31:40 AM  1006    220126   99.00    2.00    0.00    0.00  101.00     6    595.00      0.00  659236  584456   0.22   8494.00      0.00      0.00       0  perf_experiment

# Time        UID       PID    %usr %system  %guest   %wait    %CPU   CPU  minflt/s  majflt/s     VSZ     RSS   %MEM   kB_rd/s   kB_wr/s kB_ccwr/s iodelay  Command
05:31:41 AM  1006    220126   97.00    2.00    0.00    0.00   99.00     6   1217.00      0.00  659236  584456   0.22   8292.00      0.00      0.00       0  perf_experiment

# Time        UID       PID    %usr %system  %guest   %wait    %CPU   CPU  minflt/s  majflt/s     VSZ     RSS   %MEM   kB_rd/s   kB_wr/s kB_ccwr/s iodelay  Command
05:31:42 AM  1006    220126   99.00    2.00    0.00    0.00  101.00     6    761.00      0.00  659236  584488   0.22   8819.00      0.00      0.00       0  perf_experiment

# Time        UID       PID    %usr %system  %guest   %wait    %CPU   CPU  minflt/s  majflt/s     VSZ     RSS   %MEM   kB_rd/s   kB_wr/s kB_ccwr/s iodelay  Command
05:31:43 AM  1006    220126   98.00    2.00    0.00    0.00  100.00     6    728.00      0.00  659236  584488   0.22   8470.50      0.00      0.00       0  perf_experiment

# Time        UID       PID    %usr %system  %guest   %wait    %CPU   CPU  minflt/s  majflt/s     VSZ     RSS   %MEM   kB_rd/s   kB_wr/s kB_ccwr/s iodelay  Command
05:31:44 AM  1006    220126   99.00    1.00    0.00    0.00  100.00     6    657.00      0.00  659236  584488   0.22   8596.00      0.00      0.00       0  perf_experiment

# Time        UID       PID    %usr %system  %guest   %wait    %CPU   CPU  minflt/s  majflt/s     VSZ     RSS   %MEM   kB_rd/s   kB_wr/s kB_ccwr/s iodelay  Command
05:31:45 AM  1006    220126   98.00    1.00    0.00    0.00   99.00     6    639.00      0.00  659236  584488   0.22   8554.50      0.00      0.00       0  perf_experiment

# Time        UID       PID    %usr %system  %guest   %wait    %CPU   CPU  minflt/s  majflt/s     VSZ     RSS   %MEM   kB_rd/s   kB_wr/s kB_ccwr/s iodelay  Command
05:31:46 AM  1006    220126   96.00    2.00    0.00    0.00   98.00     6   8817.00      0.00  659236  584512   0.22   8322.50  32768.00      0.00       3  perf_experiment

# Time        UID       PID    %usr %system  %guest   %wait    %CPU   CPU  minflt/s  majflt/s     VSZ     RSS   %MEM   kB_rd/s   kB_wr/s kB_ccwr/s iodelay  Command
05:31:47 AM  1006    220126   98.00    2.00    0.00    0.00  100.00     6    618.00      0.00  659236  584512   0.22   8398.00      0.00      0.00       0  perf_experiment

# Time        UID       PID    %usr %system  %guest   %wait    %CPU   CPU  minflt/s  majflt/s     VSZ     RSS   %MEM   kB_rd/s   kB_wr/s kB_ccwr/s iodelay  Command
05:31:48 AM  1006    220126   96.00    4.00    0.00    0.00  100.00     6    614.00      0.00  659236  584512   0.22   8488.50      0.00      0.00       0  perf_experiment

# Time        UID       PID    %usr %system  %guest   %wait    %CPU   CPU  minflt/s  majflt/s     VSZ     RSS   %MEM   kB_rd/s   kB_wr/s kB_ccwr/s iodelay  Command
05:31:49 AM  1006    220126   98.00    2.00    0.00    0.00  100.00     6    609.00      0.00  659236  584512   0.22   8657.00      0.00      0.00       0  perf_experiment

# Time        UID       PID    %usr %system  %guest   %wait    %CPU   CPU  minflt/s  majflt/s     VSZ     RSS   %MEM   kB_rd/s   kB_wr/s kB_ccwr/s iodelay  Command
05:31:50 AM  1006    220126   98.00    2.00    0.00    0.00  100.00     6    605.00      0.00  659236  584512   0.22   8647.00      0.00      0.00       0  perf_experiment

# Time        UID       PID    %usr %system  %guest   %wait    %CPU   CPU  minflt/s  majflt/s     VSZ     RSS   %MEM   kB_rd/s   kB_wr/s kB_ccwr/s iodelay  Command
05:31:51 AM  1006    220126   97.00    3.00    0.00    0.00  100.00     6    580.00      0.00  659236  584512   0.22   8348.00      0.00      0.00       0  perf_experiment

# Time        UID       PID    %usr %system  %guest   %wait    %CPU   CPU  minflt/s  majflt/s     VSZ     RSS   %MEM   kB_rd/s   kB_wr/s kB_ccwr/s iodelay  Command
05:31:52 AM  1006    220126   99.00    1.00    0.00    0.00  100.00     6    586.00      0.00  659236  584512   0.22   8467.50      0.00      0.00       0  perf_experiment

# Time        UID       PID    %usr %system  %guest   %wait    %CPU   CPU  minflt/s  majflt/s     VSZ     RSS   %MEM   kB_rd/s   kB_wr/s kB_ccwr/s iodelay  Command
05:31:53 AM  1006    220126   97.00    3.00    0.00    0.00  100.00     6   1363.00      0.00  659236  584512   0.22   8440.00      0.00      0.00       0  perf_experiment

# Time        UID       PID    %usr %system  %guest   %wait    %CPU   CPU  minflt/s  majflt/s     VSZ     RSS   %MEM   kB_rd/s   kB_wr/s kB_ccwr/s iodelay  Command
05:31:54 AM  1006    220126   97.00    3.00    0.00    0.00  100.00     6    861.00      0.00  659236  584512   0.22   8656.50      0.00      0.00       0  perf_experiment

# Time        UID       PID    %usr %system  %guest   %wait    %CPU   CPU  minflt/s  majflt/s     VSZ     RSS   %MEM   kB_rd/s   kB_wr/s kB_ccwr/s iodelay  Command
05:31:55 AM  1006    220126   98.00    2.00    0.00    0.00  100.00     6    776.00      0.00  659236  584512   0.22   8978.50      0.00      0.00       0  perf_experiment

# Time        UID       PID    %usr %system  %guest   %wait    %CPU   CPU  minflt/s  majflt/s     VSZ     RSS   %MEM   kB_rd/s   kB_wr/s kB_ccwr/s iodelay  Command
05:31:56 AM  1006    220126   98.00    2.00    0.00    0.00  100.00     6    613.00      0.00  659236  584512   0.22   8784.50      0.00      0.00       0  perf_experiment

# Time        UID       PID    %usr %system  %guest   %wait    %CPU   CPU  minflt/s  majflt/s     VSZ     RSS   %MEM   kB_rd/s   kB_wr/s kB_ccwr/s iodelay  Command
05:31:57 AM  1006    220126   96.00    4.00    0.00    0.00  100.00     6    626.00      0.00  659236  584512   0.22   8870.00      0.00      0.00       0  perf_experiment

# Time        UID       PID    %usr %system  %guest   %wait    %CPU   CPU  minflt/s  majflt/s     VSZ     RSS   %MEM   kB_rd/s   kB_wr/s kB_ccwr/s iodelay  Command
05:31:58 AM  1006    220126   98.00    2.00    0.00    0.00  100.00     6    596.00      0.00  659236  584512   0.22   8613.00      0.00      0.00       0  perf_experiment

# Time        UID       PID    %usr %system  %guest   %wait    %CPU   CPU  minflt/s  majflt/s     VSZ     RSS   %MEM   kB_rd/s   kB_wr/s kB_ccwr/s iodelay  Command
05:31:59 AM  1006    220126   97.00    3.00    0.00    0.00  100.00     6    610.00      0.00  659236  584528   0.22   8735.00      0.00      0.00       0  perf_experiment

# Time        UID       PID    %usr %system  %guest   %wait    %CPU   CPU  minflt/s  majflt/s     VSZ     RSS   %MEM   kB_rd/s   kB_wr/s kB_ccwr/s iodelay  Command
05:32:00 AM  1006    220126   96.00    2.00    0.00    0.00   98.00     6   8784.00      0.00  659236  584528   0.22   8261.50  32768.00      0.00       2  perf_experiment

# Time        UID       PID    %usr %system  %guest   %wait    %CPU   CPU  minflt/s  majflt/s     VSZ     RSS   %MEM   kB_rd/s   kB_wr/s kB_ccwr/s iodelay  Command
05:32:01 AM  1006    220126   98.00    1.00    0.00    0.00   99.00     6    641.00      0.00  659236  584528   0.22   8808.00      0.00      0.00       0  perf_experiment

# Time        UID       PID    %usr %system  %guest   %wait    %CPU   CPU  minflt/s  majflt/s     VSZ     RSS   %MEM   kB_rd/s   kB_wr/s kB_ccwr/s iodelay  Command
05:32:02 AM  1006    220126   99.00    1.00    0.00    0.00  100.00     6    688.00      0.00  659236  584528   0.22   9220.50      0.00      0.00       0  perf_experiment

# Time        UID       PID    %usr %system  %guest   %wait    %CPU   CPU  minflt/s  majflt/s     VSZ     RSS   %MEM   kB_rd/s   kB_wr/s kB_ccwr/s iodelay  Command
05:32:03 AM  1006    220126   99.00    1.00    0.00    0.00  100.00     6    644.00      0.00  659236  584528   0.22   8630.50      0.00      0.00       0  perf_experiment

# Time        UID       PID    %usr %system  %guest   %wait    %CPU   CPU  minflt/s  majflt/s     VSZ     RSS   %MEM   kB_rd/s   kB_wr/s kB_ccwr/s iodelay  Command
05:32:04 AM  1006    220126   99.00    1.00    0.00    0.00  100.00     6    629.00      0.00  659236  584528   0.22   8450.00      0.00      0.00       0  perf_experiment

# Time        UID       PID    %usr %system  %guest   %wait    %CPU   CPU  minflt/s  majflt/s     VSZ     RSS   %MEM   kB_rd/s   kB_wr/s kB_ccwr/s iodelay  Command
05:32:05 AM  1006    220126   97.00    3.00    0.00    0.00  100.00     6    614.00      0.00  659236  584528   0.22   8500.00      0.00      0.00       0  perf_experiment

# Time        UID       PID    %usr %system  %guest   %wait    %CPU   CPU  minflt/s  majflt/s     VSZ     RSS   %MEM   kB_rd/s   kB_wr/s kB_ccwr/s iodelay  Command
05:32:06 AM  1006    220126   97.00    3.00    0.00    0.00  100.00     6    606.00      0.00  659236  584528   0.22   8513.00      0.00      0.00       0  perf_experiment

# Time        UID       PID    %usr %system  %guest   %wait    %CPU   CPU  minflt/s  majflt/s     VSZ     RSS   %MEM   kB_rd/s   kB_wr/s kB_ccwr/s iodelay  Command
05:32:07 AM  1006    220126   98.00    2.00    0.00    0.00  100.00     6    628.00      0.00  659236  584568   0.22   8764.50      0.00      0.00       0  perf_experiment

# Time        UID       PID    %usr %system  %guest   %wait    %CPU   CPU  minflt/s  majflt/s     VSZ     RSS   %MEM   kB_rd/s   kB_wr/s kB_ccwr/s iodelay  Command
05:32:08 AM  1006    220126   97.03    1.98    0.00    0.00   99.01     6   1312.87      0.00  659236  584568   0.22   8314.85      0.00      0.00       0  perf_experiment

# Time        UID       PID    %usr %system  %guest   %wait    %CPU   CPU  minflt/s  majflt/s     VSZ     RSS   %MEM   kB_rd/s   kB_wr/s kB_ccwr/s iodelay  Command
05:32:09 AM  1006    220126   98.00    2.00    0.00    0.00  100.00     6   1042.00      0.00  659236  584568   0.22   9014.50      0.00      0.00       0  perf_experiment

# Time        UID       PID    %usr %system  %guest   %wait    %CPU   CPU  minflt/s  majflt/s     VSZ     RSS   %MEM   kB_rd/s   kB_wr/s kB_ccwr/s iodelay  Command
05:32:10 AM  1006    220126   97.00    3.00    0.00    0.00  100.00     6    941.00      0.00  659236  584568   0.22   8389.50      0.00      0.00       0  perf_experiment

# Time        UID       PID    %usr %system  %guest   %wait    %CPU   CPU  minflt/s  majflt/s     VSZ     RSS   %MEM   kB_rd/s   kB_wr/s kB_ccwr/s iodelay  Command
05:32:11 AM  1006    220126   95.00    5.00    0.00    0.00  100.00     6    588.00      0.00  659236  584568   0.22   8432.50      0.00      0.00       0  perf_experiment

# Time        UID       PID    %usr %system  %guest   %wait    %CPU   CPU  minflt/s  majflt/s     VSZ     RSS   %MEM   kB_rd/s   kB_wr/s kB_ccwr/s iodelay  Command
05:32:12 AM  1006    220126   97.00    3.00    0.00    0.00  100.00     6    633.00      0.00  659236  584568   0.22   9115.50      0.00      0.00       0  perf_experiment

# Time        UID       PID    %usr %system  %guest   %wait    %CPU   CPU  minflt/s  majflt/s     VSZ     RSS   %MEM   kB_rd/s   kB_wr/s kB_ccwr/s iodelay  Command
05:32:13 AM  1006    220126   98.00    2.00    0.00    0.00  100.00     6    587.00      0.00  659236  584568   0.22   8454.50      0.00      0.00       0  perf_experiment

# Time        UID       PID    %usr %system  %guest   %wait    %CPU   CPU  minflt/s  majflt/s     VSZ     RSS   %MEM   kB_rd/s   kB_wr/s kB_ccwr/s iodelay  Command
05:32:14 AM  1006    220126   96.00    2.00    0.00    0.00   98.00     6   8701.00      0.00  659372  584580   0.22   8303.00  32768.00      0.00       3  perf_experiment

# Time        UID       PID    %usr %system  %guest   %wait    %CPU   CPU  minflt/s  majflt/s     VSZ     RSS   %MEM   kB_rd/s   kB_wr/s kB_ccwr/s iodelay  Command
05:32:15 AM  1006    220126   98.00    2.00    0.00    0.00  100.00     6    597.00      0.00  659372  584600   0.22   8581.00      0.00      0.00       0  perf_experiment

# Time        UID       PID    %usr %system  %guest   %wait    %CPU   CPU  minflt/s  majflt/s     VSZ     RSS   %MEM   kB_rd/s   kB_wr/s kB_ccwr/s iodelay  Command
05:32:16 AM  1006    220126   98.00    1.00    0.00    0.00   99.00     6    580.00      0.00  659372  584632   0.22   8237.00      0.00      0.00       0  perf_experiment

# Time        UID       PID    %usr %system  %guest   %wait    %CPU   CPU  minflt/s  majflt/s     VSZ     RSS   %MEM   kB_rd/s   kB_wr/s kB_ccwr/s iodelay  Command
05:32:17 AM  1006    220126   96.00    4.00    0.00    0.00  100.00     6    604.00      0.00  659372  584632   0.22   8609.50      0.00      0.00       0  perf_experiment

# Time        UID       PID    %usr %system  %guest   %wait    %CPU   CPU  minflt/s  majflt/s     VSZ     RSS   %MEM   kB_rd/s   kB_wr/s kB_ccwr/s iodelay  Command
05:32:18 AM  1006    220126   99.00    2.00    0.00    0.00  101.00     6    628.00      0.00  659372  584632   0.22   8726.00      0.00      0.00       0  perf_experiment

# Time        UID       PID    %usr %system  %guest   %wait    %CPU   CPU  minflt/s  majflt/s     VSZ     RSS   %MEM   kB_rd/s   kB_wr/s kB_ccwr/s iodelay  Command
05:32:19 AM  1006    220126   99.00    1.00    0.00    0.00  100.00     6    613.00      0.00  659372  584632   0.22   8556.00      0.00      0.00       0  perf_experiment

# Time        UID       PID    %usr %system  %guest   %wait    %CPU   CPU  minflt/s  majflt/s     VSZ     RSS   %MEM   kB_rd/s   kB_wr/s kB_ccwr/s iodelay  Command
05:32:20 AM  1006    220126   98.00    1.00    0.00    0.00   99.00     6    633.00      0.00  659372  584656   0.22   8329.00      0.00      0.00       0  perf_experiment

# Time        UID       PID    %usr %system  %guest   %wait    %CPU   CPU  minflt/s  majflt/s     VSZ     RSS   %MEM   kB_rd/s   kB_wr/s kB_ccwr/s iodelay  Command
05:32:21 AM  1006    220126   98.00    3.00    0.00    0.00  101.00     6    638.00      0.00  659372  584656   0.22   8629.00      0.00      0.00       0  perf_experiment

# Time        UID       PID    %usr %system  %guest   %wait    %CPU   CPU  minflt/s  majflt/s     VSZ     RSS   %MEM   kB_rd/s   kB_wr/s kB_ccwr/s iodelay  Command
05:32:22 AM  1006    220126   98.00    1.00    0.00    0.00   99.00     6    615.00      0.00  659372  584656   0.22   8443.00      0.00      0.00       0  perf_experiment

# Time        UID       PID    %usr %system  %guest   %wait    %CPU   CPU  minflt/s  majflt/s     VSZ     RSS   %MEM   kB_rd/s   kB_wr/s kB_ccwr/s iodelay  Command
05:32:23 AM  1006    220126   99.00    2.00    0.00    0.00  101.00     6    606.00      0.00  659372  584656   0.22   8479.00      0.00      0.00       0  perf_experiment

# Time        UID       PID    %usr %system  %guest   %wait    %CPU   CPU  minflt/s  majflt/s     VSZ     RSS   %MEM   kB_rd/s   kB_wr/s kB_ccwr/s iodelay  Command
05:32:24 AM  1006    220126  100.00    0.00    0.00    0.00  100.00     6    619.00      0.00  659372  584656   0.22   8684.00      0.00      0.00       0  perf_experiment

# Time        UID       PID    %usr %system  %guest   %wait    %CPU   CPU  minflt/s  majflt/s     VSZ     RSS   %MEM   kB_rd/s   kB_wr/s kB_ccwr/s iodelay  Command
05:32:25 AM  1006    220126   98.00    2.00    0.00    0.00  100.00     6    608.00      0.00  659372  584656   0.22   8670.50      0.00      0.00       0  perf_experiment

# Time        UID       PID    %usr %system  %guest   %wait    %CPU   CPU  minflt/s  majflt/s     VSZ     RSS   %MEM   kB_rd/s   kB_wr/s kB_ccwr/s iodelay  Command
05:32:26 AM  1006    220126   98.00    2.00    0.00    0.00  100.00     6    609.00      0.00  659372  584656   0.22   8688.50      0.00      0.00       0  perf_experiment

# Time        UID       PID    %usr %system  %guest   %wait    %CPU   CPU  minflt/s  majflt/s     VSZ     RSS   %MEM   kB_rd/s   kB_wr/s kB_ccwr/s iodelay  Command
05:32:27 AM  1006    220126   98.00    2.00    0.00    0.00  100.00     6    575.00      0.00  659372  584656   0.22   8232.00      0.00      0.00       0  perf_experiment

# Time        UID       PID    %usr %system  %guest   %wait    %CPU   CPU  minflt/s  majflt/s     VSZ     RSS   %MEM   kB_rd/s   kB_wr/s kB_ccwr/s iodelay  Command
05:32:28 AM  1006    220126   94.00    4.00    0.00    0.00   98.00     6   9613.00      0.00  659372  584656   0.22   8631.50  32768.00      0.00       2  perf_experiment

# Time        UID       PID    %usr %system  %guest   %wait    %CPU   CPU  minflt/s  majflt/s     VSZ     RSS   %MEM   kB_rd/s   kB_wr/s kB_ccwr/s iodelay  Command
05:32:29 AM  1006    220126   97.00    2.00    0.00    0.00   99.00     6   1076.00      0.00  659372  584656   0.22   8153.00      0.00      0.00       0  perf_experiment

# Time        UID       PID    %usr %system  %guest   %wait    %CPU   CPU  minflt/s  majflt/s     VSZ     RSS   %MEM   kB_rd/s   kB_wr/s kB_ccwr/s iodelay  Command
05:32:30 AM  1006    220126   98.00    2.00    0.00    0.00  100.00     6    915.00      0.00  659372  584656   0.22   8485.50      0.00      0.00       0  perf_experiment

# Time        UID       PID    %usr %system  %guest   %wait    %CPU   CPU  minflt/s  majflt/s     VSZ     RSS   %MEM   kB_rd/s   kB_wr/s kB_ccwr/s iodelay  Command
05:32:31 AM  1006    220126   98.00    2.00    0.00    0.00  100.00     6    823.00      0.00  659372  584656   0.22   8595.50      0.00      0.00       0  perf_experiment

# Time        UID       PID    %usr %system  %guest   %wait    %CPU   CPU  minflt/s  majflt/s     VSZ     RSS   %MEM   kB_rd/s   kB_wr/s kB_ccwr/s iodelay  Command