4,Faster,3,5000000,2500000,128,512,106483,5000000


resource usage stats

Linux 5.4.0-42-generic (arcon1) 	10/25/2020 	_x86_64_	(64 CPU)

# Time        UID       PID    %usr %system  %guest   %wait    %CPU   CPU  minflt/s  majflt/s     VSZ     RSS   %MEM   kB_rd/s   kB_wr/s kB_ccwr/s iodelay  Command
06:36:29 AM  1006    220400   74.00   25.00    0.00    0.00   99.00    39 145205.00      0.00  660948  586116   0.22      0.00      4.00      0.00       0  perf_experiment

# Time        UID       PID    %usr %system  %guest   %wait    %CPU   CPU  minflt/s  majflt/s     VSZ     RSS   %MEM   kB_rd/s   kB_wr/s kB_ccwr/s iodelay  Command
06:36:30 AM  1006    220400   88.00   10.00    0.00    0.00   98.00    39  33848.00      0.00  664908  590276   0.22      0.00  32768.00      0.00       1  perf_experiment

# Time        UID       PID    %usr %system  %guest   %wait    %CPU   CPU  minflt/s  majflt/s     VSZ     RSS   %MEM   kB_rd/s   kB_wr/s kB_ccwr/s iodelay  Command
06:36:31 AM  1006    220400   76.00   15.00    0.00    0.00   91.00    39  50887.00      0.00  668340  593672   0.23      0.00 163840.00      0.00       9  perf_experiment

# Time        UID       PID    %usr %system  %guest   %wait    %CPU   CPU  minflt/s  majflt/s     VSZ     RSS   %MEM   kB_rd/s   kB_wr/s kB_ccwr/s iodelay  Command
06:36:32 AM  1006    220400   79.00   10.00    0.00    0.00   89.00    39  50193.00      0.00  671508  596764   0.23      0.00 131072.00      0.00      12  perf_experiment

# Time        UID       PID    %usr %system  %guest   %wait    %CPU   CPU  minflt/s  majflt/s     VSZ     RSS   %MEM   kB_rd/s   kB_wr/s kB_ccwr/s iodelay  Command
06:36:33 AM  1006    220400   78.00   10.00    0.00    0.00   88.00    39  64494.00      0.00  674676  600052   0.23      0.00 163840.00      0.00      11  perf_experiment

# Time        UID       PID    %usr %system  %guest   %wait    %CPU   CPU  minflt/s  majflt/s     VSZ     RSS   %MEM   kB_rd/s   kB_wr/s kB_ccwr/s iodelay  Command
06:36:34 AM  1006    220400   79.21   10.89    0.00    0.00   90.10    39  43513.86      0.00  677976  603136   0.23      0.00 129774.26      0.00      10  perf_experiment

# Time        UID       PID    %usr %system  %guest   %wait    %CPU   CPU  minflt/s  majflt/s     VSZ     RSS   %MEM   kB_rd/s   kB_wr/s kB_ccwr/s iodelay  Command
06:36:35 AM  1006    220400   77.00   11.00    0.00    0.00   88.00    39  42203.00      0.00  681012  606352   0.23      0.00 163840.00      0.00      11  perf_experiment

# Time        UID       PID    %usr %system  %guest   %wait    %CPU   CPU  minflt/s  majflt/s     VSZ     RSS   %MEM   kB_rd/s   kB_wr/s kB_ccwr/s iodelay  Command
06:36:36 AM  1006    220400   83.00    8.00    0.00    0.00   91.00    39  34041.00      0.00  684312  609616   0.23      0.00 131072.00      0.00      10  perf_experiment

# Time        UID       PID    %usr %system  %guest   %wait    %CPU   CPU  minflt/s  majflt/s     VSZ     RSS   %MEM   kB_rd/s   kB_wr/s kB_ccwr/s iodelay  Command
06:36:37 AM  1006    220400   80.00   11.00    0.00    0.00   91.00    39  35996.00      0.00  687084  612340   0.23   1401.00 131072.00      0.00       9  perf_experiment

# Time        UID       PID    %usr %system  %guest   %wait    %CPU   CPU  minflt/s  majflt/s     VSZ     RSS   %MEM   kB_rd/s   kB_wr/s kB_ccwr/s iodelay  Command
06:36:38 AM  1006    220400   94.00    3.00    0.00    0.00   97.00    39   8351.00      0.00  687484  612736   0.23   9513.00  32768.00      0.00       2  perf_experiment

# Time        UID       PID    %usr %system  %guest   %wait    %CPU   CPU  minflt/s  majflt/s     VSZ     RSS   %MEM   kB_rd/s   kB_wr/s kB_ccwr/s iodelay  Command
06:36:39 AM  1006    220400   93.00    5.00    0.00    0.00   98.00    39   8552.00      0.00  688276  613616   0.23   8522.50  32768.00      0.00       3  perf_experiment

# Time        UID       PID    %usr %system  %guest   %wait    %CPU   CPU  minflt/s  majflt/s     VSZ     RSS   %MEM   kB_rd/s   kB_wr/s kB_ccwr/s iodelay  Command
06:36:40 AM  1006    220400   92.00    5.00    0.00    0.00   97.00    39  13140.00      0.00  689064  614400   0.23   8483.00  32768.00      0.00       2  perf_experiment

# Time        UID       PID    %usr %system  %guest   %wait    %CPU   CPU  minflt/s  majflt/s     VSZ     RSS   %MEM   kB_rd/s   kB_wr/s kB_ccwr/s iodelay  Command
06:36:41 AM  1006    220400   96.00    2.00    0.00    0.00   98.00    39   8474.00      0.00  689596  614936   0.23   9467.50  32768.00      0.00       2  perf_experiment

# Time        UID       PID    %usr %system  %guest   %wait    %CPU   CPU  minflt/s  majflt/s     VSZ     RSS   %MEM   kB_rd/s   kB_wr/s kB_ccwr/s iodelay  Command
06:36:42 AM  1006    220400   92.00    5.00    0.00    0.00   97.00    39  17743.00      0.00  690384  615724   0.23   8284.00  32768.00      0.00       3  perf_experiment

# Time        UID       PID    %usr %system  %guest   %wait    %CPU   CPU  minflt/s  majflt/s     VSZ     RSS   %MEM   kB_rd/s   kB_wr/s kB_ccwr/s iodelay  Command
06:36:43 AM  1006    220400   95.00    2.00    0.00    0.00   97.00    39  12243.00      0.00  691184  616488   0.23   8316.50  32768.00      0.00       3  perf_experiment

# Time        UID       PID    %usr %system  %guest   %wait    %CPU   CPU  minflt/s  majflt/s     VSZ     RSS   %MEM   kB_rd/s   kB_wr/s kB_ccwr/s iodelay  Command
06:36:44 AM  1006    220400   95.00    4.00    0.00    0.00   99.00    39   9633.00      0.00  691592  617000   0.23   9397.50  32768.00      0.00       2  perf_experiment

# Time        UID       PID    %usr %system  %guest   %wait    %CPU   CPU  minflt/s  majflt/s     VSZ     RSS   %MEM   kB_rd/s   kB_wr/s kB_ccwr/s iodelay  Command
06:36:45 AM  1006    220400   94.00    3.00    0.00    0.00   97.00    39  12233.00      0.00  692388  617728   0.23   8341.00  32768.00      0.00       2  perf_experiment

# Time        UID       PID    %usr %system  %guest   %wait    %CPU   CPU  minflt/s  majflt/s     VSZ     RSS   %MEM   kB_rd/s   kB_wr/s kB_ccwr/s iodelay  Command
06:36:46 AM  1006    220400   95.00    3.00    0.00    0.00   98.00    39  14430.00      0.00  693176  618600   0.23   8271.00  32768.00      0.00       2  perf_experiment

# Time        UID       PID    %usr %system  %guest   %wait    %CPU   CPU  minflt/s  majflt/s     VSZ     RSS   %MEM   kB_rd/s   kB_wr/s kB_ccwr/s iodelay  Command
06:36:47 AM  1006    220400   94.00    4.00    0.00    0.00   98.00    39  11505.00      0.00  693712  618940   0.23   9445.00  32768.00      0.00       3  perf_experiment

# Time        UID       PID    %usr %system  %guest   %wait    %CPU   CPU  minflt/s  majflt/s     VSZ     RSS   %MEM   kB_rd/s   kB_wr/s kB_ccwr/s iodelay  Command
06:36:48 AM  1006    220400   95.00    2.00    0.00    0.00   97.00    39   8442.00      0.00  694224  619564   0.23   8935.00  32768.00      0.00       2  perf_experiment

# Time        UID       PID    %usr %system  %guest   %wait    %CPU   CPU  minflt/s  majflt/s     VSZ     RSS   %MEM   kB_rd/s   kB_wr/s kB_ccwr/s iodelay  Command
06:36:49 AM  1006    220400   99.00    1.00    0.00    0.00  100.00    39     66.00      0.00  694480  619816   0.23  10733.00      0.00      0.00       0  perf_experiment

# Time        UID       PID    %usr %system  %guest   %wait    %CPU   CPU  minflt/s  majflt/s     VSZ     RSS   %MEM   kB_rd/s   kB_wr/s kB_ccwr/s iodelay  Command
06:36:50 AM  1006    220400   97.00    3.00    0.00    0.00  100.00    39   4630.00      0.00  694744  620092   0.24  10691.00      0.00      0.00       0  perf_experiment

# Time        UID       PID    %usr %system  %guest   %wait    %CPU   CPU  minflt/s  majflt/s     VSZ     RSS   %MEM   kB_rd/s   kB_wr/s kB_ccwr/s iodelay  Command
06:36:51 AM  1006    220400   92.00    6.00    0.00    0.00   98.00    39  15322.00      0.00  695136  620592   0.24   9228.00  32768.00      0.00       3  perf_experiment

# Time        UID       PID    %usr %system  %guest   %wait    %CPU   CPU  minflt/s  majflt/s     VSZ     RSS   %MEM   kB_rd/s   kB_wr/s kB_ccwr/s iodelay  Command
06:36:52 AM  1006    220400   98.00    2.00    0.00    0.00  100.00    39   2543.00      0.00  695400  620832   0.24  10693.50      0.00      0.00       0  perf_experiment

# Time        UID       PID    %usr %system  %guest   %wait    %CPU   CPU  minflt/s  majflt/s     VSZ     RSS   %MEM   kB_rd/s   kB_wr/s kB_ccwr/s iodelay  Command
06:36:53 AM  1006    220400   96.00    2.00    0.00    0.00   98.00    39   9641.00      0.00  695656  620988   0.24  10482.50  32768.00      0.00       2  perf_experiment

# Time        UID       PID    %usr %system  %guest   %wait    %CPU   CPU  minflt/s  majflt/s     VSZ     RSS   %MEM   kB_rd/s   kB_wr/s kB_ccwr/s iodelay  Command
06:36:54 AM  1006    220400   96.00    3.00    0.00    0.00   99.00    39    233.00      0.00  696176  621568   0.24   9514.00      0.00      0.00       0  perf_experiment

# Time        UID       PID    %usr %system  %guest   %wait    %CPU   CPU  minflt/s  majflt/s     VSZ     RSS   %MEM   kB_rd/s   kB_wr/s kB_ccwr/s iodelay  Command
06:36:55 AM  1006    220400   97.00    2.00    0.00    0.00   99.00    39   8258.00      0.00  696444  621736   0.24  10230.50  32768.00      0.00       2  perf_experiment

# Time        UID       PID    %usr %system  %guest   %wait    %CPU   CPU  minflt/s  majflt/s     VSZ     RSS   %MEM   kB_rd/s   kB_wr/s kB_ccwr/s iodelay  Command
06:36:56 AM  1006    220400   96.00    3.00    0.00    0.00   99.00    39     78.00      0.00  696572  621964   0.24  10655.00      0.00      0.00       0  perf_experiment

# Time        UID       PID    %usr %system  %guest   %wait    %CPU   CPU  minflt/s  majflt/s     VSZ     RSS   %MEM   kB_rd/s   kB_wr/s kB_ccwr/s iodelay  Command
06:36:57 AM  1006    220400   96.00    5.00    0.00    0.00  101.00    39   3369.00      0.00  696832  622188   0.24  10622.50      0.00      0.00       0  perf_experiment

# Time        UID       PID    %usr %system  %guest   %wait    %CPU   CPU  minflt/s  majflt/s     VSZ     RSS   %MEM   kB_rd/s   kB_wr/s kB_ccwr/s iodelay  Command
06:36:58 AM  1006    220400   94.00    2.00    0.00    0.00   96.00    39  11687.00      0.00  697076  622432   0.24  10082.50  32768.00      0.00       3  perf_experiment

# Time        UID       PID    %usr %system  %guest   %wait    %CPU   CPU  minflt/s  majflt/s     VSZ     RSS   %MEM   kB_rd/s   kB_wr/s kB_ccwr/s iodelay  Command
06:36:59 AM  1006    220400   97.00    3.00    0.00    0.00  100.00    39    284.00      0.00  697076  622488   0.24  11073.50      0.00      0.00       0  perf_experiment

# Time        UID       PID    %usr %system  %guest   %wait    %CPU   CPU  minflt/s  majflt/s     VSZ     RSS   %MEM   kB_rd/s   kB_wr/s kB_ccwr/s iodelay  Command
06:37:00 AM  1006    220400   96.00    5.00    0.00    0.00  101.00    39    928.00      0.00  697208  622552   0.24  11285.50      0.00      0.00       0  perf_experiment

# Time        UID       PID    %usr %system  %guest   %wait    %CPU   CPU  minflt/s  majflt/s     VSZ     RSS   %MEM   kB_rd/s   kB_wr/s kB_ccwr/s iodelay  Command
06:37:01 AM  1006    220400   97.00    3.00    0.00    0.00  100.00    39   1139.00      0.00  697208  622644   0.24  11163.50      0.00      0.00       0  perf_experiment

# Time        UID       PID    %usr %system  %guest   %wait    %CPU   CPU  minflt/s  majflt/s     VSZ     RSS   %MEM   kB_rd/s   kB_wr/s kB_ccwr/s iodelay  Command
06:37:02 AM  1006    220400   99.00    1.00    0.00    0.00  100.00    39   1151.00      0.00  697344  622748   0.24  11245.50      0.00      0.00       0  perf_experiment

# Time        UID       PID    %usr %system  %guest   %wait    %CPU   CPU  minflt/s  majflt/s     VSZ     RSS   %MEM   kB_rd/s   kB_wr/s kB_ccwr/s iodelay  Command
06:37:03 AM  1006    220400   98.00    2.00    0.00    0.00  100.00    39   1141.00      0.00  697344  622756   0.24  11108.00      0.00      0.00       0  perf_experiment

# Time        UID       PID    %usr %system  %guest   %wait    %CPU   CPU  minflt/s  majflt/s     VSZ     RSS   %MEM   kB_rd/s   kB_wr/s kB_ccwr/s iodelay  Command
06:37:04 AM  1006    220400   98.00    2.00    0.00    0.00  100.00    39   1198.00      0.00  697472  622884   0.24  11515.00      0.00      0.00       0  perf_experiment

# Time        UID       PID    %usr %system  %guest   %wait    %CPU   CPU  minflt/s  majflt/s     VSZ     RSS   %MEM   kB_rd/s   kB_wr/s kB_ccwr/s iodelay  Command
06:37:05 AM  1006    220400   98.00    2.00    0.00    0.00  100.00    39   1130.00      0.00  697472  622924   0.24  11206.00      0.00      0.00       0  perf_experiment

# Time        UID       PID    %usr %system  %guest   %wait    %CPU   CPU  minflt/s  majflt/s     VSZ     RSS   %MEM   kB_rd/s   kB_wr/s kB_ccwr/s iodelay  Command
06:37:06 AM  1006    220400   98.00    2.00    0.00    0.00  100.00    39   1565.00      0.00  697608  623020   0.24  11325.00      0.00      0.00       0  perf_experiment

# Time        UID       PID    %usr %system  %guest   %wait    %CPU   CPU  minflt/s  majflt/s     VSZ     RSS   %MEM   kB_rd/s   kB_wr/s kB_ccwr/s iodelay  Command
06:37:07 AM  1006    220400   96.00    2.00    0.00    0.00   98.00    39   9386.00      0.00  697736  623104   0.24  10874.50  32768.00      0.00       2  perf_experiment

# Time        UID       PID    %usr %system  %guest   %wait    %CPU   CPU  minflt/s  majflt/s     VSZ     RSS   %MEM   kB_rd/s   kB_wr/s kB_ccwr/s iodelay  Command
06:37:08 AM  1006    220400   97.00    3.00    0.00    0.00  100.00    39    979.00      0.00  697736  623156   0.24  11015.50      0.00      0.00       0  perf_experiment

# Time        UID       PID    %usr %system  %guest   %wait    %CPU   CPU  minflt/s  majflt/s     VSZ     RSS   %MEM   kB_rd/s   kB_wr/s kB_ccwr/s iodelay  Command
06:37:09 AM  1006    220400   98.00    1.00    0.00    0.00   99.00    39   1044.00      0.00  697872  623276   0.24  11569.50      0.00      0.00       0  perf_experiment

# Time        UID       PID    %usr %system  %guest   %wait    %CPU   CPU  minflt/s  majflt/s     VSZ     RSS   %MEM   kB_rd/s   kB_wr/s kB_ccwr/s iodelay  Command
06:37:10 AM  1006    220400   99.00    2.00    0.00    0.00  101.00    39   1008.00      0.00  697872  623332   0.24  11328.50      0.00      0.00       0  perf_experiment

# Time        UID       PID    %usr %system  %guest   %wait    %CPU   CPU  minflt/s  majflt/s     VSZ     RSS   %MEM   kB_rd/s   kB_wr/s kB_ccwr/s iodelay  Command
06:37:11 AM  1006    220400   99.00    0.00    0.00    0.00   99.00    39   1080.00      0.00  698008  623436   0.24  11221.00      0.00      0.00       0  perf_experiment

# Time        UID       PID    %usr %system  %guest   %wait    %CPU   CPU  minflt/s  majflt/s     VSZ     RSS   %MEM   kB_rd/s   kB_wr/s kB_ccwr/s iodelay  Command
06:37:12 AM  1006    220400   98.00    3.00    0.00    0.00  101.00    39   1144.00      0.00  698144  623492   0.24  11315.00      0.00      0.00       0  perf_experiment

# Time        UID       PID    %usr %system  %guest   %wait    %CPU   CPU  minflt/s  majflt/s     VSZ     RSS   %MEM   kB_rd/s   kB_wr/s kB_ccwr/s iodelay  Command
06:37:13 AM  1006    220400   99.00    1.00    0.00    0.00  100.00    39   1200.00      0.00  698144  623552   0.24  11505.00      0.00      0.00       0  perf_experiment

# Time        UID       PID    %usr %system  %guest   %wait    %CPU   CPU  minflt/s  majflt/s     VSZ     RSS   %MEM   kB_rd/s   kB_wr/s kB_ccwr/s iodelay  Command
06:37:14 AM  1006    220400   96.00    3.00    0.00    0.00   99.00    39   1165.00      0.00  698272  623644   0.24  11433.50      0.00      0.00       0  perf_experiment

# Time        UID       PID    %usr %system  %guest   %wait    %CPU   CPU  minflt/s  majflt/s     VSZ     RSS   %MEM   kB_rd/s   kB_wr/s kB_ccwr/s iodelay  Command
06:37:15 AM  1006    220400   98.00    3.00    0.00    0.00  101.00    39   1111.00      0.00  698272  623700   0.24  10891.00      0.00      0.00       0  perf_experiment

# Time        UID       PID    %usr %system  %guest   %wait    %CPU   CPU  minflt/s  majflt/s     VSZ     RSS   %MEM   kB_rd/s   kB_wr/s kB_ccwr/s iodelay  Command
06:37:16 AM  1006    220400   94.00    4.00    0.00    0.00   98.00    39   9302.00      0.00  698400  623788   0.24  10884.00  32768.00      0.00       2  perf_experiment

# Time        UID       PID    %usr %system  %guest   %wait    %CPU   CPU  minflt/s  majflt/s     VSZ     RSS   %MEM   kB_rd/s   kB_wr/s kB_ccwr/s iodelay  Command
06:37:17 AM  1006    220400   96.00    3.00    0.00    0.00   99.00    39   1197.00      0.00  698400  623860   0.24  11682.00      0.00      0.00       0  perf_experiment

# Time        UID       PID    %usr %system  %guest   %wait    %CPU   CPU  minflt/s  majflt/s     VSZ     RSS   %MEM   kB_rd/s   kB_wr/s kB_ccwr/s iodelay  Command
06:37:18 AM  1006    220400   99.00    1.00    0.00    0.00  100.00    39   1564.00      0.00  698532  623964   0.24  11028.50      0.00      0.00       0  perf_experiment

# Time        UID       PID    %usr %system  %guest   %wait    %CPU   CPU  minflt/s  majflt/s     VSZ     RSS   %MEM   kB_rd/s   kB_wr/s kB_ccwr/s iodelay  Command
06:37:19 AM  1006    220400   98.00    2.00    0.00    0.00  100.00    39   1284.00      0.00  698664  624004   0.24  11291.00      0.00      0.00       0  perf_experiment

# Time        UID       PID    %usr %system  %guest   %wait    %CPU   CPU  minflt/s  majflt/s     VSZ     RSS   %MEM   kB_rd/s   kB_wr/s kB_ccwr/s iodelay  Command
06:37:20 AM  1006    220400   98.00    2.00    0.00    0.00  100.00    39   1101.00      0.00  698664  624064   0.24  10883.00      0.00      0.00       0  perf_experiment

# Time        UID       PID    %usr %system  %guest   %wait    %CPU   CPU  minflt/s  majflt/s     VSZ     RSS   %MEM   kB_rd/s   kB_wr/s kB_ccwr/s iodelay  Command
06:37:21 AM  1006    220400   95.00    6.00    0.00    0.00  101.00    39   1028.00      0.00  698788  624204   0.24  11332.00      0.00      0.00       0  perf_experiment

# Time        UID       PID    %usr %system  %guest   %wait    %CPU   CPU  minflt/s  majflt/s     VSZ     RSS   %MEM   kB_rd/s   kB_wr/s kB_ccwr/s iodelay  Command
06:37:22 AM  1006    220400   97.00    2.00    0.00    0.00   99.00    39    969.00      0.00  698920  624252   0.24  10881.00      0.00      0.00       0  perf_experiment

# Time        UID       PID    %usr %system  %guest   %wait    %CPU   CPU  minflt/s  majflt/s     VSZ     RSS   %MEM   kB_rd/s   kB_wr/s kB_ccwr/s iodelay  Command
06:37:23 AM  1006    220400   98.00    2.00    0.00    0.00  100.00    39    993.00      0.00  698920  624332   0.24  11109.50      0.00      0.00       0  perf_experiment

# Time        UID       PID    %usr %system  %guest   %wait    %CPU   CPU  minflt/s  majflt/s     VSZ     RSS   %MEM   kB_rd/s   kB_wr/s kB_ccwr/s iodelay  Command
06:37:24 AM  1006    220400   97.00    3.00    0.00    0.00  100.00    39   1004.00      0.00  699056  624396   0.24  11172.50      0.00      0.00       0  perf_experiment

# Time        UID       PID    %usr %system  %guest   %wait    %CPU   CPU  minflt/s  majflt/s     VSZ     RSS   %MEM   kB_rd/s   kB_wr/s kB_ccwr/s iodelay  Command
06:37:25 AM  1006    220400   94.00    3.00    0.00    0.00   97.00    39   9303.00      0.00  699056  624492   0.24  10694.00  32768.00      0.00       3  perf_experiment

# Time        UID       PID    %usr %system  %guest   %wait    %CPU   CPU  minflt/s  majflt/s     VSZ     RSS   %MEM   kB_rd/s   kB_wr/s kB_ccwr/s iodelay  Command
06:37:26 AM  1006    220400   97.00    4.00    0.00    0.00  101.00    39   1152.00      0.00  699192  624540   0.24  11087.00      0.00      0.00       0  perf_experiment

# Time        UID       PID    %usr %system  %guest   %wait    %CPU   CPU  minflt/s  majflt/s     VSZ     RSS   %MEM   kB_rd/s   kB_wr/s kB_ccwr/s iodelay  Command
06:37:27 AM  1006    220400   99.00    1.00    0.00    0.00  100.00    39   1182.00      0.00  699192  624640   0.24  11126.50      0.00      0.00       0  perf_experiment

# Time        UID       PID    %usr %system  %guest   %wait    %CPU   CPU  minflt/s  majflt/s     VSZ     RSS   %MEM   kB_rd/s   kB_wr/s kB_ccwr/s iodelay  Command
06:37:28 AM  1006    220400   98.00    2.00    0.00    0.00  100.00    39   1154.00      0.00  699324  624704   0.24  11172.50      0.00      0.00       0  perf_experiment

# Time        UID       PID    %usr %system  %guest   %wait    %CPU   CPU  minflt/s  majflt/s     VSZ     RSS   %MEM   kB_rd/s   kB_wr/s kB_ccwr/s iodelay  Command
06:37:29 AM  1006    220400   98.00    2.00    0.00    0.00  100.00    39   1157.00      0.00  699324  624776   0.24  11125.50      0.00      0.00       0  perf_experiment

# Time        UID       PID    %usr %system  %guest   %wait    %CPU   CPU  minflt/s  majflt/s     VSZ     RSS   %MEM   kB_rd/s   kB_wr/s kB_ccwr/s iodelay  Command
06:37:30 AM  1006    220400   97.00    3.00    0.00    0.00  100.00    39   1148.00      0.00  699460  624864   0.24  10962.00      0.00      0.00       0  perf_experiment

# Time        UID       PID    %usr %system  %guest   %wait    %CPU   CPU  minflt/s  majflt/s     VSZ     RSS   %MEM   kB_rd/s   kB_wr/s kB_ccwr/s iodelay  Command
06:37:31 AM  1006    220400   98.00    2.00    0.00    0.00  100.00    39   1149.00      0.00  699460  624908   0.24  11057.50      0.00      0.00       0  perf_experiment

# Time        UID       PID    %usr %system  %guest   %wait    %CPU   CPU  minflt/s  majflt/s     VSZ     RSS   %MEM   kB_rd/s   kB_wr/s kB_ccwr/s iodelay  Command
06:37:32 AM  1006    220400   97.00    3.00    0.00    0.00  100.00    39   1179.00      0.00  699592  624992   0.24  11144.50      0.00      0.00       0  perf_experiment

# Time        UID       PID    %usr %system  %guest   %wait    %CPU   CPU  minflt/s  majflt/s     VSZ     RSS   %MEM   kB_rd/s   kB_wr/s kB_ccwr/s iodelay  Command
06:37:33 AM  1006    220400   96.00    3.00    0.00    0.00   99.00    39   1466.00      0.00  699716  625064   0.24  10930.50      0.00      0.00       0  perf_experiment

# Time        UID       PID    %usr %system  %guest   %wait    %CPU   CPU  minflt/s  majflt/s     VSZ     RSS   %MEM   kB_rd/s   kB_wr/s kB_ccwr/s iodelay  Command
06:37:34 AM  1006    220400   96.00    2.00    0.00    0.00   98.00    39   9389.00      0.00  699716  625140   0.24  10685.00  32768.00      0.00       2  perf_experiment

# Time        UID       PID    %usr %system  %guest   %wait    %CPU   CPU  minflt/s  majflt/s     VSZ     RSS   %MEM   kB_rd/s   kB_wr/s kB_ccwr/s iodelay  Command
06:37:35 AM  1006    220400   98.00    2.00    0.00    0.00  100.00    39     78.00      0.00  699848  625156   0.24  11046.50      0.00      0.00       0  perf_experiment

# Time        UID       PID    %usr %system  %guest   %wait    %CPU   CPU  minflt/s  majflt/s     VSZ     RSS   %MEM   kB_rd/s   kB_wr/s kB_ccwr/s iodelay  Command
06:37:36 AM  1006    220400   97.00    3.00    0.00    0.00  100.00    39     67.00      0.00  699848  625268   0.24  10944.00      0.00      0.00       0  perf_experiment

# Time        UID       PID    %usr %system  %guest   %wait    %CPU   CPU  minflt/s  majflt/s     VSZ     RSS   %MEM   kB_rd/s   kB_wr/s kB_ccwr/s iodelay  Command
06:37:37 AM  1006    220400   97.00    3.00    0.00    0.00  100.00    39     45.00      0.00  699976  625316   0.24  10982.00      0.00      0.00       0  perf_experiment

# Time        UID       PID    %usr %system  %guest   %wait    %CPU   CPU  minflt/s  majflt/s     VSZ     RSS   %MEM   kB_rd/s   kB_wr/s kB_ccwr/s iodelay  Command
06:37:38 AM  1006    220400   99.00    1.00    0.00    0.00  100.00    39     34.00      0.00  700112  625316   0.24  11128.00      0.00      0.00       0  perf_experiment

# Time        UID       PID    %usr %system  %guest   %wait    %CPU   CPU  minflt/s  majflt/s     VSZ     RSS   %MEM   kB_rd/s   kB_wr/s kB_ccwr/s iodelay  Command
06:37:39 AM  1006    220400   98.00    2.00    0.00    0.00  100.00    39     85.00      0.00  700112  625552   0.24  11097.50      0.00      0.00       0  perf_experiment

# Time        UID       PID    %usr %system  %guest   %wait    %CPU   CPU  minflt/s  majflt/s     VSZ     RSS   %MEM   kB_rd/s   kB_wr/s kB_ccwr/s iodelay  Command
06:37:40 AM  1006    220400   99.00    1.00    0.00    0.00  100.00    39    872.00      0.00  700244  625624   0.24  11066.50      0.00      0.00       0  perf_experiment

# Time        UID       PID    %usr %system  %guest   %wait    %CPU   CPU  minflt/s  majflt/s     VSZ     RSS   %MEM   kB_rd/s   kB_wr/s kB_ccwr/s iodelay  Command
06:37:41 AM  1006    220400   97.00    3.00    0.00    0.00  100.00    39    862.00      0.00  700244  625656   0.24  11059.00      0.00      0.00       0  perf_experiment

# Time        UID       PID    %usr %system  %guest   %wait    %CPU   CPU  minflt/s  majflt/s     VSZ     RSS   %MEM   kB_rd/s   kB_wr/s kB_ccwr/s iodelay  Command
06:37:42 AM  1006    220400   98.00    2.00    0.00    0.00  100.00    39    873.00      0.00  700372  625752   0.24  11156.50      0.00      0.00       0  perf_experiment

# Time        UID       PID    %usr %system  %guest   %wait    %CPU   CPU  minflt/s  majflt/s     VSZ     RSS   %MEM   kB_rd/s   kB_wr/s kB_ccwr/s iodelay  Command
06:37:43 AM  1006    220400   99.00    1.00    0.00    0.00  100.00    39    857.00      0.00  700372  625808   0.24  10975.50      0.00      0.00       0  perf_experiment

# Time        UID       PID    %usr %system  %guest   %wait    %CPU   CPU  minflt/s  majflt/s     VSZ     RSS   %MEM   kB_rd/s   kB_wr/s kB_ccwr/s iodelay  Command
06:37:44 AM  1006    220400   95.00    2.00    0.00    0.00   97.00    39   9047.00      0.00  700508  625900   0.24  10825.50  32768.00      0.00       3  perf_experiment

# Time        UID       PID    %usr %system  %guest   %wait    %CPU   CPU  minflt/s  majflt/s     VSZ     RSS   %MEM   kB_rd/s   kB_wr/s kB_ccwr/s iodelay  Command
06:37:45 AM  1006    220400   98.00    2.00    0.00    0.00  100.00    39    878.00      0.00  700508  625956   0.24  10993.50      0.00      0.00       0  perf_experiment

# Time        UID       PID    %usr %system  %guest   %wait    %CPU   CPU  minflt/s  majflt/s     VSZ     RSS   %MEM   kB_rd/s   kB_wr/s kB_ccwr/s iodelay  Command
06:37:46 AM  1006    220400   96.00    5.00    0.00    0.00  101.00    39    880.00      0.00  700640  626056   0.24  11077.00      0.00      0.00       0  perf_experiment

# Time        UID       PID    %usr %system  %guest   %wait    %CPU   CPU  minflt/s  majflt/s     VSZ     RSS   %MEM   kB_rd/s   kB_wr/s kB_ccwr/s iodelay  Command
06:37:47 AM  1006    220400   97.00    3.00    0.00    0.00  100.00    39    923.00      0.00  700764  626136   0.24  10989.00      0.00      0.00       0  perf_experiment

# Time        UID       PID    %usr %system  %guest   %wait    %CPU   CPU  minflt/s  majflt/s     VSZ     RSS   %MEM   kB_rd/s   kB_wr/s kB_ccwr/s iodelay  Command
06:37:48 AM  1006    220400   97.00    2.00    0.00    0.00   99.00    39    999.00      0.00  700764  626200   0.24  11123.00      0.00      0.00       0  perf_experiment

# Time        UID       PID    %usr %system  %guest   %wait    %CPU   CPU  minflt/s  majflt/s     VSZ     RSS   %MEM   kB_rd/s   kB_wr/s kB_ccwr/s iodelay  Command
06:37:49 AM  1006    220400   99.00    2.00    0.00    0.00  101.00    39    995.00      0.00  700888  626284   0.24  10928.50      0.00      0.00       0  perf_experiment

# Time        UID       PID    %usr %system  %guest   %wait    %CPU   CPU  minflt/s  majflt/s     VSZ     RSS   %MEM   kB_rd/s   kB_wr/s kB_ccwr/s iodelay  Command
06:37:50 AM  1006    220400   98.00    1.00    0.00    0.00   99.00    39    995.00      0.00  701012  626352   0.24  11055.00      0.00      0.00       0  perf_experiment

# Time        UID       PID    %usr %system  %guest   %wait    %CPU   CPU  minflt/s  majflt/s     VSZ     RSS   %MEM   kB_rd/s   kB_wr/s kB_ccwr/s iodelay  Command
06:37:51 AM  1006    220400   98.00    2.00    0.00    0.00  100.00    39   1016.00      0.00  701012  626444   0.24  11154.00      0.00      0.00       0  perf_experiment

# Time        UID       PID    %usr %system  %guest   %wait    %CPU   CPU  minflt/s  majflt/s     VSZ     RSS   %MEM   kB_rd/s   kB_wr/s kB_ccwr/s iodelay  Command
06:37:52 AM  1006    220400   97.00    4.00    0.00    0.00  101.00    39    876.00      0.00  701144  626508   0.24  10863.50      0.00      0.00       0  perf_experiment

# Time        UID       PID    %usr %system  %guest   %wait    %CPU   CPU  minflt/s  majflt/s     VSZ     RSS   %MEM   kB_rd/s   kB_wr/s kB_ccwr/s iodelay  Command
06:37:53 AM  1006    220400   98.00    0.00    0.00    0.00   98.00    39   8644.00      0.00  701144  626580   0.24  10738.50  32768.00      0.00       2  perf_experiment

# Time        UID       PID    %usr %system  %guest   %wait    %CPU   CPU  minflt/s  majflt/s     VSZ     RSS   %MEM   kB_rd/s   kB_wr/s kB_ccwr/s iodelay  Command
06:37:54 AM  1006    220400   97.00    2.00    0.00    0.00   99.00    39    392.00      0.00  701272  626664   0.24  11159.50      0.00      0.00       0  perf_experiment

# Time        UID       PID    %usr %system  %guest   %wait    %CPU   CPU  minflt/s  majflt/s     VSZ     RSS   %MEM   kB_rd/s   kB_wr/s kB_ccwr/s iodelay  Command
06:37:55 AM  1006    220400   99.00    2.00    0.00    0.00  101.00    39    105.00      0.00  701408  626732   0.24  10849.50      0.00      0.00       0  perf_experiment

# Time        UID       PID    %usr %system  %guest   %wait    %CPU   CPU  minflt/s  majflt/s     VSZ     RSS   %MEM   kB_rd/s   kB_wr/s kB_ccwr/s iodelay  Command
06:37:56 AM  1006    220400   97.00    2.00    0.00    0.00   99.00    39     99.00      0.00  701400  626780   0.24  11325.00      0.00      0.00       0  perf_experiment

# Time        UID       PID    %usr %system  %guest   %wait    %CPU   CPU  minflt/s  majflt/s     VSZ     RSS   %MEM   kB_rd/s   kB_wr/s kB_ccwr/s iodelay  Command