1,Faster,100,5000000,2500000,512,2048,266344,2252720


resource usage stats

Linux 5.4.0-42-generic (arcon1) 	10/25/2020 	_x86_64_	(64 CPU)

# Time        UID       PID    %usr %system  %guest   %wait    %CPU   CPU  minflt/s  majflt/s     VSZ     RSS   %MEM   kB_rd/s   kB_wr/s kB_ccwr/s iodelay  Command
01:18:53 AM  1006    218270   79.00   19.00    0.00    0.00   98.00    51 144438.00      0.00  590180  582820   0.22      0.00      4.00      0.00       0  perf_experiment

# Time        UID       PID    %usr %system  %guest   %wait    %CPU   CPU  minflt/s  majflt/s     VSZ     RSS   %MEM   kB_rd/s   kB_wr/s kB_ccwr/s iodelay  Command
01:18:54 AM  1006    218270   77.00    2.00    0.00    0.00   79.00    51      3.00      0.00  590180  582820   0.22      0.00 294912.00      0.00      21  perf_experiment

# Time        UID       PID    %usr %system  %guest   %wait    %CPU   CPU  minflt/s  majflt/s     VSZ     RSS   %MEM   kB_rd/s   kB_wr/s kB_ccwr/s iodelay  Command
01:18:55 AM  1006    218270   76.00    3.00    0.00    0.00   79.00    51      1.00      0.00  590180  582820   0.22      0.00 294912.00      0.00      22  perf_experiment

# Time        UID       PID    %usr %system  %guest   %wait    %CPU   CPU  minflt/s  majflt/s     VSZ     RSS   %MEM   kB_rd/s   kB_wr/s kB_ccwr/s iodelay  Command
01:18:56 AM  1006    218270   79.00    0.00    0.00    0.00   79.00    51      1.00      0.00  590180  582820   0.22      0.00 294912.00      0.00      20  perf_experiment

# Time        UID       PID    %usr %system  %guest   %wait    %CPU   CPU  minflt/s  majflt/s     VSZ     RSS   %MEM   kB_rd/s   kB_wr/s kB_ccwr/s iodelay  Command
01:18:57 AM  1006    218270   76.00    4.00    0.00    0.00   80.00    51      3.00      0.00  590180  583208   0.22      0.00 262144.00      0.00      21  perf_experiment

# Time        UID       PID    %usr %system  %guest   %wait    %CPU   CPU  minflt/s  majflt/s     VSZ     RSS   %MEM   kB_rd/s   kB_wr/s kB_ccwr/s iodelay  Command
01:18:58 AM  1006    218270   75.00    2.00    0.00    0.00   77.00    51      0.00      0.00  590180  583208   0.22      0.00 294912.00      0.00      22  perf_experiment

# Time        UID       PID    %usr %system  %guest   %wait    %CPU   CPU  minflt/s  majflt/s     VSZ     RSS   %MEM   kB_rd/s   kB_wr/s kB_ccwr/s iodelay  Command
01:18:59 AM  1006    218270   76.00    2.00    0.00    0.00   78.00    51      1.00      0.00  590180  583208   0.22      0.00 294912.00      0.00      20  perf_experiment

# Time        UID       PID    %usr %system  %guest   %wait    %CPU   CPU  minflt/s  majflt/s     VSZ     RSS   %MEM   kB_rd/s   kB_wr/s kB_ccwr/s iodelay  Command
01:19:00 AM  1006    218270   79.00    1.00    0.00    0.00   80.00    51      0.00      0.00  590180  583208   0.22      0.00 262144.00      0.00      22  perf_experiment

# Time        UID       PID    %usr %system  %guest   %wait    %CPU   CPU  minflt/s  majflt/s     VSZ     RSS   %MEM   kB_rd/s   kB_wr/s kB_ccwr/s iodelay  Command
01:19:01 AM  1006    218270   75.00    3.00    0.00    0.00   78.00    51      3.00      0.00  590316  583208   0.22      0.00 294912.00      0.00      22  perf_experiment

# Time        UID       PID    %usr %system  %guest   %wait    %CPU   CPU  minflt/s  majflt/s     VSZ     RSS   %MEM   kB_rd/s   kB_wr/s kB_ccwr/s iodelay  Command
01:19:02 AM  1006    218270   76.00    2.00    0.00    0.00   78.00    51      0.00      0.00  590316  583208   0.22      0.00 294912.00      0.00      23  perf_experiment

# Time        UID       PID    %usr %system  %guest   %wait    %CPU   CPU  minflt/s  majflt/s     VSZ     RSS   %MEM   kB_rd/s   kB_wr/s kB_ccwr/s iodelay  Command
01:19:03 AM  1006    218270   80.00    1.00    0.00    0.00   81.00    51      1.00      0.00  590316  583208   0.22      0.00 262144.00      0.00      19  perf_experiment

# Time        UID       PID    %usr %system  %guest   %wait    %CPU   CPU  minflt/s  majflt/s     VSZ     RSS   %MEM   kB_rd/s   kB_wr/s kB_ccwr/s iodelay  Command
01:19:04 AM  1006    218270   76.00    1.00    0.00    0.00   77.00    51      0.00      0.00  590316  583208   0.22      0.00 294912.00      0.00      22  perf_experiment

# Time        UID       PID    %usr %system  %guest   %wait    %CPU   CPU  minflt/s  majflt/s     VSZ     RSS   %MEM   kB_rd/s   kB_wr/s kB_ccwr/s iodelay  Command
01:19:05 AM  1006    218270   78.00    1.00    0.00    0.00   79.00    51      2.00      0.00  590316  583208   0.22      0.00 294912.00      0.00      22  perf_experiment

# Time        UID       PID    %usr %system  %guest   %wait    %CPU   CPU  minflt/s  majflt/s     VSZ     RSS   %MEM   kB_rd/s   kB_wr/s kB_ccwr/s iodelay  Command
01:19:06 AM  1006    218270   79.00    2.00    0.00    0.00   81.00    51      0.00      0.00  590316  583208   0.22      0.00 262144.00      0.00      19  perf_experiment

# Time        UID       PID    %usr %system  %guest   %wait    %CPU   CPU  minflt/s  majflt/s     VSZ     RSS   %MEM   kB_rd/s   kB_wr/s kB_ccwr/s iodelay  Command
01:19:07 AM  1006    218270   76.00    1.00    0.00    0.00   77.00    51      1.00      0.00  590316  583208   0.22      0.00 294912.00      0.00      22  perf_experiment

# Time        UID       PID    %usr %system  %guest   %wait    %CPU   CPU  minflt/s  majflt/s     VSZ     RSS   %MEM   kB_rd/s   kB_wr/s kB_ccwr/s iodelay  Command
01:19:08 AM  1006    218270   77.00    3.00    0.00    0.00   80.00    51      0.00      0.00  590316  583208   0.22      0.00 294912.00      0.00      21  perf_experiment

# Time        UID       PID    %usr %system  %guest   %wait    %CPU   CPU  minflt/s  majflt/s     VSZ     RSS   %MEM   kB_rd/s   kB_wr/s kB_ccwr/s iodelay  Command
01:19:09 AM  1006    218270   78.00    1.00    0.00    0.00   79.00    51      2.00      0.00  590316  583208   0.22      0.00 262144.00      0.00      21  perf_experiment

# Time        UID       PID    %usr %system  %guest   %wait    %CPU   CPU  minflt/s  majflt/s     VSZ     RSS   %MEM   kB_rd/s   kB_wr/s kB_ccwr/s iodelay  Command
01:19:10 AM  1006    218270   76.00    1.00    0.00    0.00   77.00    51      0.00      0.00  590316  583208   0.22      0.00 294912.00      0.00      22  perf_experiment

# Time        UID       PID    %usr %system  %guest   %wait    %CPU   CPU  minflt/s  majflt/s     VSZ     RSS   %MEM   kB_rd/s   kB_wr/s kB_ccwr/s iodelay  Command
01:19:11 AM  1006    218270   79.00    1.00    0.00    0.00   80.00    51      1.00      0.00  590316  583208   0.22      0.00 262144.00      0.00      20  perf_experiment

# Time        UID       PID    %usr %system  %guest   %wait    %CPU   CPU  minflt/s  majflt/s     VSZ     RSS   %MEM   kB_rd/s   kB_wr/s kB_ccwr/s iodelay  Command
01:19:12 AM  1006    218270   77.00    1.00    0.00    0.00   78.00    51      0.00      0.00  590316  583208   0.22      0.00 294912.00      0.00      23  perf_experiment

# Time        UID       PID    %usr %system  %guest   %wait    %CPU   CPU  minflt/s  majflt/s     VSZ     RSS   %MEM   kB_rd/s   kB_wr/s kB_ccwr/s iodelay  Command
01:19:13 AM  1006    218270   79.00    1.00    0.00    0.00   80.00    51      2.00      0.00  590316  583208   0.22      0.00 262144.00      0.00      19  perf_experiment

# Time        UID       PID    %usr %system  %guest   %wait    %CPU   CPU  minflt/s  majflt/s     VSZ     RSS   %MEM   kB_rd/s   kB_wr/s kB_ccwr/s iodelay  Command
01:19:14 AM  1006    218270   77.00    2.00    0.00    0.00   79.00    51      0.00      0.00  590316  583208   0.22      0.00 294912.00      0.00      22  perf_experiment

# Time        UID       PID    %usr %system  %guest   %wait    %CPU   CPU  minflt/s  majflt/s     VSZ     RSS   %MEM   kB_rd/s   kB_wr/s kB_ccwr/s iodelay  Command
01:19:15 AM  1006    218270   80.00    0.00    0.00    0.00   80.00    51      0.00      0.00  590316  583208   0.22      0.00 294912.00      0.00      19  perf_experiment

# Time        UID       PID    %usr %system  %guest   %wait    %CPU   CPU  minflt/s  majflt/s     VSZ     RSS   %MEM   kB_rd/s   kB_wr/s kB_ccwr/s iodelay  Command
01:19:16 AM  1006    218270   78.00    1.00    0.00    0.00   79.00    51      3.00      0.00  590316  583208   0.22      0.00 262144.00      0.00      22  perf_experiment

# Time        UID       PID    %usr %system  %guest   %wait    %CPU   CPU  minflt/s  majflt/s     VSZ     RSS   %MEM   kB_rd/s   kB_wr/s kB_ccwr/s iodelay  Command
01:19:17 AM  1006    218270   77.00    1.00    0.00    0.00   78.00    51      0.00      0.00  590316  583208   0.22      0.00 294912.00      0.00      19  perf_experiment

# Time        UID       PID    %usr %system  %guest   %wait    %CPU   CPU  minflt/s  majflt/s     VSZ     RSS   %MEM   kB_rd/s   kB_wr/s kB_ccwr/s iodelay  Command
01:19:18 AM  1006    218270   80.00    1.00    0.00    0.00   81.00    51      0.00      0.00  590316  583208   0.22      0.00 262144.00      0.00      22  perf_experiment

# Time        UID       PID    %usr %system  %guest   %wait    %CPU   CPU  minflt/s  majflt/s     VSZ     RSS   %MEM   kB_rd/s   kB_wr/s kB_ccwr/s iodelay  Command
01:19:19 AM  1006    218270   76.00    2.00    0.00    0.00   78.00    51      0.00      0.00  590316  583208   0.22      0.00 294912.00      0.00      20  perf_experiment

# Time        UID       PID    %usr %system  %guest   %wait    %CPU   CPU  minflt/s  majflt/s     VSZ     RSS   %MEM   kB_rd/s   kB_wr/s kB_ccwr/s iodelay  Command
01:19:20 AM  1006    218270   77.00    1.00    0.00    0.00   78.00    51      0.00      0.00  590316  583208   0.22      0.00 262144.00      0.00      23  perf_experiment

# Time        UID       PID    %usr %system  %guest   %wait    %CPU   CPU  minflt/s  majflt/s     VSZ     RSS   %MEM   kB_rd/s   kB_wr/s kB_ccwr/s iodelay  Command
01:19:21 AM  1006    218270   79.00    1.00    0.00    0.00   80.00    51      0.00      0.00  590316  583208   0.22      0.00 262144.00      0.00      20  perf_experiment

# Time        UID       PID    %usr %system  %guest   %wait    %CPU   CPU  minflt/s  majflt/s     VSZ     RSS   %MEM   kB_rd/s   kB_wr/s kB_ccwr/s iodelay  Command
01:19:22 AM  1006    218270   75.00    2.00    0.00    0.00   77.00    51      0.00      0.00  590316  583208   0.22      0.00 294912.00      0.00      23  perf_experiment

# Time        UID       PID    %usr %system  %guest   %wait    %CPU   CPU  minflt/s  majflt/s     VSZ     RSS   %MEM   kB_rd/s   kB_wr/s kB_ccwr/s iodelay  Command
01:19:23 AM  1006    218270   79.00    2.00    0.00    0.00   81.00    51      0.00      0.00  590316  583208   0.22      0.00 262144.00      0.00      20  perf_experiment

# Time        UID       PID    %usr %system  %guest   %wait    %CPU   CPU  minflt/s  majflt/s     VSZ     RSS   %MEM   kB_rd/s   kB_wr/s kB_ccwr/s iodelay  Command
01:19:24 AM  1006    218270   77.00    2.00    0.00    0.00   79.00    51      3.00      0.00  590316  583208   0.22      0.00 294912.00      0.00      19  perf_experiment

# Time        UID       PID    %usr %system  %guest   %wait    %CPU   CPU  minflt/s  majflt/s     VSZ     RSS   %MEM   kB_rd/s   kB_wr/s kB_ccwr/s iodelay  Command
01:19:25 AM  1006    218270   78.00    1.00    0.00    0.00   79.00    51      0.00      0.00  590316  583208   0.22      0.00 262144.00      0.00      22  perf_experiment

# Time        UID       PID    %usr %system  %guest   %wait    %CPU   CPU  minflt/s  majflt/s     VSZ     RSS   %MEM   kB_rd/s   kB_wr/s kB_ccwr/s iodelay  Command
01:19:26 AM  1006    218270   81.00    0.00    0.00    0.00   81.00    51      0.00      0.00  590316  583208   0.22      0.00 262144.00      0.00      19  perf_experiment

# Time        UID       PID    %usr %system  %guest   %wait    %CPU   CPU  minflt/s  majflt/s     VSZ     RSS   %MEM   kB_rd/s   kB_wr/s kB_ccwr/s iodelay  Command
01:19:27 AM  1006    218270   76.00    3.00    0.00    0.00   79.00    51      0.00      0.00  590316  583208   0.22      0.00 294912.00      0.00      21  perf_experiment

# Time        UID       PID    %usr %system  %guest   %wait    %CPU   CPU  minflt/s  majflt/s     VSZ     RSS   %MEM   kB_rd/s   kB_wr/s kB_ccwr/s iodelay  Command
01:19:28 AM  1006    218270   79.00    2.00    0.00    0.00   81.00    51      2.00      0.00  590316  583208   0.22      0.00 262144.00      0.00      20  perf_experiment

# Time        UID       PID    %usr %system  %guest   %wait    %CPU   CPU  minflt/s  majflt/s     VSZ     RSS   %MEM   kB_rd/s   kB_wr/s kB_ccwr/s iodelay  Command
01:19:29 AM  1006    218270   78.00    2.00    0.00    0.00   80.00    51      0.00      0.00  590316  583208   0.22      0.00 262144.00      0.00      20  perf_experiment

# Time        UID       PID    %usr %system  %guest   %wait    %CPU   CPU  minflt/s  majflt/s     VSZ     RSS   %MEM   kB_rd/s   kB_wr/s kB_ccwr/s iodelay  Command
01:19:30 AM  1006    218270   76.00    1.00    0.00    0.00   77.00    51      0.00      0.00  590316  583208   0.22      0.00 294912.00      0.00      22  perf_experiment

# Time        UID       PID    %usr %system  %guest   %wait    %CPU   CPU  minflt/s  majflt/s     VSZ     RSS   %MEM   kB_rd/s   kB_wr/s kB_ccwr/s iodelay  Command
01:19:31 AM  1006    218270   80.00    2.00    0.00    0.00   82.00    51      0.00      0.00  590316  583208   0.22      0.00 262144.00      0.00      19  perf_experiment

# Time        UID       PID    %usr %system  %guest   %wait    %CPU   CPU  minflt/s  majflt/s     VSZ     RSS   %MEM   kB_rd/s   kB_wr/s kB_ccwr/s iodelay  Command
01:19:32 AM  1006    218270   79.00    0.00    0.00    0.00   79.00    51      2.00      0.00  590316  583208   0.22      0.00 262144.00      0.00      20  perf_experiment

# Time        UID       PID    %usr %system  %guest   %wait    %CPU   CPU  minflt/s  majflt/s     VSZ     RSS   %MEM   kB_rd/s   kB_wr/s kB_ccwr/s iodelay  Command
01:19:33 AM  1006    218270   79.00    2.00    0.00    0.00   81.00    51      1.00      0.00  590316  583208   0.22      0.00 262144.00      0.00      19  perf_experiment

# Time        UID       PID    %usr %system  %guest   %wait    %CPU   CPU  minflt/s  majflt/s     VSZ     RSS   %MEM   kB_rd/s   kB_wr/s kB_ccwr/s iodelay  Command
01:19:34 AM  1006    218270   79.00    0.00    0.00    0.00   79.00    51      0.00      0.00  590316  583208   0.22      0.00 294912.00      0.00      20  perf_experiment

# Time        UID       PID    %usr %system  %guest   %wait    %CPU   CPU  minflt/s  majflt/s     VSZ     RSS   %MEM   kB_rd/s   kB_wr/s kB_ccwr/s iodelay  Command
01:19:35 AM  1006    218270   78.00    1.00    0.00    0.00   79.00    51      0.00      0.00  590316  583208   0.22      0.00 262144.00      0.00      22  perf_experiment

# Time        UID       PID    %usr %system  %guest   %wait    %CPU   CPU  minflt/s  majflt/s     VSZ     RSS   %MEM   kB_rd/s   kB_wr/s kB_ccwr/s iodelay  Command
01:19:36 AM  1006    218270   79.00    1.00    0.00    0.00   80.00    51      2.00      0.00  590316  583208   0.22      0.00 262144.00      0.00      19  perf_experiment

# Time        UID       PID    %usr %system  %guest   %wait    %CPU   CPU  minflt/s  majflt/s     VSZ     RSS   %MEM   kB_rd/s   kB_wr/s kB_ccwr/s iodelay  Command
01:19:37 AM  1006    218270   80.00    2.00    0.00    0.00   82.00    51      0.00      0.00  590316  583208   0.22      0.00 262144.00      0.00      19  perf_experiment

# Time        UID       PID    %usr %system  %guest   %wait    %CPU   CPU  minflt/s  majflt/s     VSZ     RSS   %MEM   kB_rd/s   kB_wr/s kB_ccwr/s iodelay  Command
01:19:38 AM  1006    218270   78.00    2.00    0.00    0.00   80.00    51      0.00      0.00  590316  583208   0.22      0.00 262144.00      0.00      19  perf_experiment

# Time        UID       PID    %usr %system  %guest   %wait    %CPU   CPU  minflt/s  majflt/s     VSZ     RSS   %MEM   kB_rd/s   kB_wr/s kB_ccwr/s iodelay  Command
01:19:39 AM  1006    218270   81.00    3.00    0.00    0.00   84.00    51     39.00      0.00  658052  583208   0.22   3823.50 229376.00      0.00      18  perf_experiment

# Time        UID       PID    %usr %system  %guest   %wait    %CPU   CPU  minflt/s  majflt/s     VSZ     RSS   %MEM   kB_rd/s   kB_wr/s kB_ccwr/s iodelay  Command
01:19:40 AM  1006    218270   99.00    1.00    0.00    0.00  100.00    51      0.00      0.00  658052  583208   0.22  19360.00      0.00      0.00       0  perf_experiment

# Time        UID       PID    %usr %system  %guest   %wait    %CPU   CPU  minflt/s  majflt/s     VSZ     RSS   %MEM   kB_rd/s   kB_wr/s kB_ccwr/s iodelay  Command
01:19:41 AM  1006    218270   98.00    2.00    0.00    0.00  100.00    51      0.00      0.00  658052  583208   0.22  19373.00      0.00      0.00       0  perf_experiment

# Time        UID       PID    %usr %system  %guest   %wait    %CPU   CPU  minflt/s  majflt/s     VSZ     RSS   %MEM   kB_rd/s   kB_wr/s kB_ccwr/s iodelay  Command
01:19:42 AM  1006    218270   98.00    2.00    0.00    0.00  100.00    51      0.00      0.00  658052  583208   0.22  19204.00      0.00      0.00       0  perf_experiment

# Time        UID       PID    %usr %system  %guest   %wait    %CPU   CPU  minflt/s  majflt/s     VSZ     RSS   %MEM   kB_rd/s   kB_wr/s kB_ccwr/s iodelay  Command
01:19:43 AM  1006    218270   97.00    3.00    0.00    0.00  100.00    51   5611.00      0.00  658052  583432   0.22  19295.00      0.00      0.00       0  perf_experiment

# Time        UID       PID    %usr %system  %guest   %wait    %CPU   CPU  minflt/s  majflt/s     VSZ     RSS   %MEM   kB_rd/s   kB_wr/s kB_ccwr/s iodelay  Command
01:19:44 AM  1006    218270   98.00    1.00    0.00    0.00   99.00    51   3167.00      0.00  658052  583432   0.22  19317.50      0.00      0.00       0  perf_experiment

# Time        UID       PID    %usr %system  %guest   %wait    %CPU   CPU  minflt/s  majflt/s     VSZ     RSS   %MEM   kB_rd/s   kB_wr/s kB_ccwr/s iodelay  Command
01:19:45 AM  1006    218270   99.00    2.00    0.00    0.00  101.00    51    647.00      0.00  658052  583432   0.22  19347.50      0.00      0.00       0  perf_experiment

# Time        UID       PID    %usr %system  %guest   %wait    %CPU   CPU  minflt/s  majflt/s     VSZ     RSS   %MEM   kB_rd/s   kB_wr/s kB_ccwr/s iodelay  Command
01:19:46 AM  1006    218270   98.00    2.00    0.00    0.00  100.00    51    204.00      0.00  658052  583432   0.22  19345.50      0.00      0.00       0  perf_experiment

# Time        UID       PID    %usr %system  %guest   %wait    %CPU   CPU  minflt/s  majflt/s     VSZ     RSS   %MEM   kB_rd/s   kB_wr/s kB_ccwr/s iodelay  Command
01:19:47 AM  1006    218270   96.00    3.00    0.00    0.00   99.00    51    178.00      0.00  658052  583432   0.22  19322.00      0.00      0.00       0  perf_experiment

# Time        UID       PID    %usr %system  %guest   %wait    %CPU   CPU  minflt/s  majflt/s     VSZ     RSS   %MEM   kB_rd/s   kB_wr/s kB_ccwr/s iodelay  Command
01:19:48 AM  1006    218270   99.01    0.99    0.00    0.00  100.00    51    152.48      0.00  658052  583432   0.22  19143.07      0.00      0.00       0  perf_experiment

# Time        UID       PID    %usr %system  %guest   %wait    %CPU   CPU  minflt/s  majflt/s     VSZ     RSS   %MEM   kB_rd/s   kB_wr/s kB_ccwr/s iodelay  Command
01:19:49 AM  1006    218270   98.00    2.00    0.00    0.00  100.00    51     96.00      0.00  658052  583432   0.22  19364.50      0.00      0.00       0  perf_experiment

# Time        UID       PID    %usr %system  %guest   %wait    %CPU   CPU  minflt/s  majflt/s     VSZ     RSS   %MEM   kB_rd/s   kB_wr/s kB_ccwr/s iodelay  Command
01:19:50 AM  1006    218270   98.00    2.00    0.00    0.00  100.00    51    102.00      0.00  658052  583432   0.22  19519.00      0.00      0.00       0  perf_experiment

# Time        UID       PID    %usr %system  %guest   %wait    %CPU   CPU  minflt/s  majflt/s     VSZ     RSS   %MEM   kB_rd/s   kB_wr/s kB_ccwr/s iodelay  Command
01:19:51 AM  1006    218270   98.00    1.00    0.00    0.00   99.00    51     81.00      0.00  658052  583432   0.22  19588.00      0.00      0.00       0  perf_experiment

# Time        UID       PID    %usr %system  %guest   %wait    %CPU   CPU  minflt/s  majflt/s     VSZ     RSS   %MEM   kB_rd/s   kB_wr/s kB_ccwr/s iodelay  Command
01:19:52 AM  1006    218270   99.00    1.00    0.00    0.00  100.00    51     56.00      0.00  658052  583432   0.22  19505.00      0.00      0.00       0  perf_experiment

# Time        UID       PID    %usr %system  %guest   %wait    %CPU   CPU  minflt/s  majflt/s     VSZ     RSS   %MEM   kB_rd/s   kB_wr/s kB_ccwr/s iodelay  Command
01:19:53 AM  1006    218270   99.00    1.00    0.00    0.00  100.00    51    111.00      0.00  658052  583432   0.22  19718.00      0.00      0.00       0  perf_experiment

# Time        UID       PID    %usr %system  %guest   %wait    %CPU   CPU  minflt/s  majflt/s     VSZ     RSS   %MEM   kB_rd/s   kB_wr/s kB_ccwr/s iodelay  Command
01:19:54 AM  1006    218270   99.00    2.00    0.00    0.00  101.00    51     75.00      0.00  658052  583432   0.22  19574.50      0.00      0.00       0  perf_experiment

# Time        UID       PID    %usr %system  %guest   %wait    %CPU   CPU  minflt/s  majflt/s     VSZ     RSS   %MEM   kB_rd/s   kB_wr/s kB_ccwr/s iodelay  Command
01:19:55 AM  1006    218270   99.00    1.00    0.00    0.00  100.00    51     93.00      0.00  658052  583432   0.22  19476.00      0.00      0.00       0  perf_experiment

# Time        UID       PID    %usr %system  %guest   %wait    %CPU   CPU  minflt/s  majflt/s     VSZ     RSS   %MEM   kB_rd/s   kB_wr/s kB_ccwr/s iodelay  Command
01:19:56 AM  1006    218270   97.00    2.00    0.00    0.00   99.00    51    154.00      0.00  658052  583432   0.22  19625.00      0.00      0.00       0  perf_experiment

# Time        UID       PID    %usr %system  %guest   %wait    %CPU   CPU  minflt/s  majflt/s     VSZ     RSS   %MEM   kB_rd/s   kB_wr/s kB_ccwr/s iodelay  Command
01:19:57 AM  1006    218270   99.00    2.00    0.00    0.00  101.00    51    179.00      0.00  658052  583432   0.22  19573.00      0.00      0.00       0  perf_experiment

# Time        UID       PID    %usr %system  %guest   %wait    %CPU   CPU  minflt/s  majflt/s     VSZ     RSS   %MEM   kB_rd/s   kB_wr/s kB_ccwr/s iodelay  Command
01:19:58 AM  1006    218270   97.00    3.00    0.00    0.00  100.00    51    140.00      0.00  658052  583432   0.22  19575.50      0.00      0.00       0  perf_experiment

# Time        UID       PID    %usr %system  %guest   %wait    %CPU   CPU  minflt/s  majflt/s     VSZ     RSS   %MEM   kB_rd/s   kB_wr/s kB_ccwr/s iodelay  Command
01:19:59 AM  1006    218270   99.00    1.00    0.00    0.00  100.00    51    151.00      0.00  658052  583432   0.22  19574.00      0.00      0.00       0  perf_experiment

# Time        UID       PID    %usr %system  %guest   %wait    %CPU   CPU  minflt/s  majflt/s     VSZ     RSS   %MEM   kB_rd/s   kB_wr/s kB_ccwr/s iodelay  Command
01:20:00 AM  1006    218270   99.00    1.00    0.00    0.00  100.00    51    175.00      0.00  658052  583432   0.22  19542.50      0.00      0.00       0  perf_experiment

# Time        UID       PID    %usr %system  %guest   %wait    %CPU   CPU  minflt/s  majflt/s     VSZ     RSS   %MEM   kB_rd/s   kB_wr/s kB_ccwr/s iodelay  Command
01:20:01 AM  1006    218270   98.00    2.00    0.00    0.00  100.00    51    170.00      0.00  658052  583432   0.22  19540.50      0.00      0.00       0  perf_experiment

# Time        UID       PID    %usr %system  %guest   %wait    %CPU   CPU  minflt/s  majflt/s     VSZ     RSS   %MEM   kB_rd/s   kB_wr/s kB_ccwr/s iodelay  Command
01:20:02 AM  1006    218270   98.00    2.00    0.00    0.00  100.00    51    149.00      0.00  658052  583432   0.22  19589.00      0.00      0.00       0  perf_experiment

# Time        UID       PID    %usr %system  %guest   %wait    %CPU   CPU  minflt/s  majflt/s     VSZ     RSS   %MEM   kB_rd/s   kB_wr/s kB_ccwr/s iodelay  Command
01:20:03 AM  1006    218270   99.00    1.00    0.00    0.00  100.00    51    150.00      0.00  658052  583432   0.22  19548.00      0.00      0.00       0  perf_experiment

# Time        UID       PID    %usr %system  %guest   %wait    %CPU   CPU  minflt/s  majflt/s     VSZ     RSS   %MEM   kB_rd/s   kB_wr/s kB_ccwr/s iodelay  Command
01:20:04 AM  1006    218270   99.00    1.00    0.00    0.00  100.00    51    151.00      0.00  658052  583432   0.22  19576.50      0.00      0.00       0  perf_experiment

# Time        UID       PID    %usr %system  %guest   %wait    %CPU   CPU  minflt/s  majflt/s     VSZ     RSS   %MEM   kB_rd/s   kB_wr/s kB_ccwr/s iodelay  Command
01:20:05 AM  1006    218270   99.00    1.00    0.00    0.00  100.00    51    161.00      0.00  658052  583432   0.22  19617.00      0.00      0.00       0  perf_experiment

# Time        UID       PID    %usr %system  %guest   %wait    %CPU   CPU  minflt/s  majflt/s     VSZ     RSS   %MEM   kB_rd/s   kB_wr/s kB_ccwr/s iodelay  Command
01:20:06 AM  1006    218270   98.00    2.00    0.00    0.00  100.00    51    154.00      0.00  658052  583432   0.22  19577.00      0.00      0.00       0  perf_experiment

# Time        UID       PID    %usr %system  %guest   %wait    %CPU   CPU  minflt/s  majflt/s     VSZ     RSS   %MEM   kB_rd/s   kB_wr/s kB_ccwr/s iodelay  Command
01:20:07 AM  1006    218270  100.00    0.00    0.00    0.00  100.00    51    199.00      0.00  658052  583432   0.22  19543.00      0.00      0.00       0  perf_experiment

# Time        UID       PID    %usr %system  %guest   %wait    %CPU   CPU  minflt/s  majflt/s     VSZ     RSS   %MEM   kB_rd/s   kB_wr/s kB_ccwr/s iodelay  Command
01:20:08 AM  1006    218270   99.00    1.00    0.00    0.00  100.00    51    156.00      0.00  658052  583432   0.22  19585.50      0.00      0.00       0  perf_experiment

# Time        UID       PID    %usr %system  %guest   %wait    %CPU   CPU  minflt/s  majflt/s     VSZ     RSS   %MEM   kB_rd/s   kB_wr/s kB_ccwr/s iodelay  Command
01:20:09 AM  1006    218270   96.00    3.00    0.00    0.00   99.00    51    156.00      0.00  658052  583432   0.22  19607.50      0.00      0.00       0  perf_experiment

# Time        UID       PID    %usr %system  %guest   %wait    %CPU   CPU  minflt/s  majflt/s     VSZ     RSS   %MEM   kB_rd/s   kB_wr/s kB_ccwr/s iodelay  Command
01:20:10 AM  1006    218270   98.00    2.00    0.00    0.00  100.00    51    153.00      0.00  658052  583432   0.22  19533.00      0.00      0.00       0  perf_experiment

# Time        UID       PID    %usr %system  %guest   %wait    %CPU   CPU  minflt/s  majflt/s     VSZ     RSS   %MEM   kB_rd/s   kB_wr/s kB_ccwr/s iodelay  Command
01:20:11 AM  1006    218270  100.00    1.00    0.00    0.00  101.00    51    116.00      0.00  658052  583432   0.22  19544.50      0.00      0.00       0  perf_experiment

# Time        UID       PID    %usr %system  %guest   %wait    %CPU   CPU  minflt/s  majflt/s     VSZ     RSS   %MEM   kB_rd/s   kB_wr/s kB_ccwr/s iodelay  Command
01:20:12 AM  1006    218270   98.00    2.00    0.00    0.00  100.00    51    149.00      0.00  658052  583432   0.22  19551.50      0.00      0.00       0  perf_experiment

# Time        UID       PID    %usr %system  %guest   %wait    %CPU   CPU  minflt/s  majflt/s     VSZ     RSS   %MEM   kB_rd/s   kB_wr/s kB_ccwr/s iodelay  Command
01:20:13 AM  1006    218270   97.00    3.00    0.00    0.00  100.00    51    155.00      0.00  658052  583432   0.22  19541.00      0.00      0.00       0  perf_experiment

# Time        UID       PID    %usr %system  %guest   %wait    %CPU   CPU  minflt/s  majflt/s     VSZ     RSS   %MEM   kB_rd/s   kB_wr/s kB_ccwr/s iodelay  Command
01:20:14 AM  1006    218270   98.00    2.00    0.00    0.00  100.00    51    162.00      0.00  658052  583432   0.22  19556.00      0.00      0.00       0  perf_experiment

# Time        UID       PID    %usr %system  %guest   %wait    %CPU   CPU  minflt/s  majflt/s     VSZ     RSS   %MEM   kB_rd/s   kB_wr/s kB_ccwr/s iodelay  Command
01:20:15 AM  1006    218270   99.00    1.00    0.00    0.00  100.00    51    150.00      0.00  658052  583432   0.22  19589.50      0.00      0.00       0  perf_experiment

# Time        UID       PID    %usr %system  %guest   %wait    %CPU   CPU  minflt/s  majflt/s     VSZ     RSS   %MEM   kB_rd/s   kB_wr/s kB_ccwr/s iodelay  Command
01:20:16 AM  1006    218270   98.00    1.00    0.00    0.00   99.00    51    179.00      0.00  658052  583432   0.22  19588.00      0.00      0.00       0  perf_experiment

# Time        UID       PID    %usr %system  %guest   %wait    %CPU   CPU  minflt/s  majflt/s     VSZ     RSS   %MEM   kB_rd/s   kB_wr/s kB_ccwr/s iodelay  Command
01:20:17 AM  1006    218270   99.00    2.00    0.00    0.00  101.00    51    152.00      0.00  658052  583432   0.22  19568.50      0.00      0.00       0  perf_experiment

# Time        UID       PID    %usr %system  %guest   %wait    %CPU   CPU  minflt/s  majflt/s     VSZ     RSS   %MEM   kB_rd/s   kB_wr/s kB_ccwr/s iodelay  Command
01:20:18 AM  1006    218270   97.00    2.00    0.00    0.00   99.00    51    155.00      0.00  658052  583432   0.22  19558.00      0.00      0.00       0  perf_experiment

# Time        UID       PID    %usr %system  %guest   %wait    %CPU   CPU  minflt/s  majflt/s     VSZ     RSS   %MEM   kB_rd/s   kB_wr/s kB_ccwr/s iodelay  Command
01:20:19 AM  1006    218270   97.00    4.00    0.00    0.00  101.00    51    130.00      0.00  658052  583432   0.22  19591.00      0.00      0.00       0  perf_experiment

# Time        UID       PID    %usr %system  %guest   %wait    %CPU   CPU  minflt/s  majflt/s     VSZ     RSS   %MEM   kB_rd/s   kB_wr/s kB_ccwr/s iodelay  Command
01:20:20 AM  1006    218270   99.00    1.00    0.00    0.00  100.00    51    140.00      0.00  658052  583432   0.22  19590.50      0.00      0.00       0  perf_experiment

# Time        UID       PID    %usr %system  %guest   %wait    %CPU   CPU  minflt/s  majflt/s     VSZ     RSS   %MEM   kB_rd/s   kB_wr/s kB_ccwr/s iodelay  Command